<?xml version="1.0" encoding="UTF-8"?>

<!-- generated on 2025-08-18 15:55:02 by Eclipse SUMO GUI Version 1.23.1
<sumoConfiguration xmlns:xsi="http://www.w3.org/2001/XMLSchema-instance" xsi:noNamespaceSchemaLocation="http://sumo.dlr.de/xsd/sumoConfiguration.xsd">

    <input>
        <net-file value="C:\Users\izdee\Desktop\BachelorArb\Berlin\gruppe2-main\Project_Dateien\Original\berlin_original.net.xml"/>
        <route-files value="C:\Users\izdee\Desktop\BachelorArb\Berlin\gruppe2-main\Project_Dateien\Original\berlin_original.rou.xml"/>
        <additional-files value="C:\Users\izdee\Desktop\BachelorArb\Berlin\gruppe2-main\Project_Dateien\Original\berlin_original.add.xml,C:\Users\izdee\Desktop\BachelorArb\Berlin\gruppe2-main\Project_Dateien\Original\meandata.add.xml"/>
    </input>

    <time>
        <begin value="57600"/>
        <end value="61200"/>
    </time>

    <report>
        <duration-log.statistics value="true"/>
    </report>

</sumoConfiguration>
-->

<meandata xmlns:xsi="http://www.w3.org/2001/XMLSchema-instance" xsi:noNamespaceSchemaLocation="http://sumo.dlr.de/xsd/meandata_file.xsd">
    <interval begin="57600.00" end="57660.00" id="ed1">
        <edge id="-1136034180#1" sampledSeconds="127.91" traveltime="32.10" overlapTraveltime="32.95" density="19.08" laneDensity="19.08" occupancy="9.37" waitingTime="51.00" timeLoss="71.32" speed="3.54" speedRelative="0.43" departed="4" arrived="1" entered="1" left="3" laneChangedFrom="0" laneChangedTo="0"/>
        <edge id="-131333251#1" sampledSeconds="19.75" traveltime="19.69" overlapTraveltime="20.43" density="2.21" laneDensity="2.21" occupancy="1.08" waitingTime="0.00" timeLoss="3.07" speed="7.55" speedRelative="0.91" departed="1" arrived="0" entered="0" left="1" laneChangedFrom="0" laneChangedTo="0"/>
        <edge id="-155605284#1" sampledSeconds="36.37" traveltime="17.92" overlapTraveltime="18.81" density="4.93" laneDensity="4.93" occupancy="2.41" waitingTime="0.00" timeLoss="6.44" speed="6.80" speedRelative="0.82" departed="3" arrived="0" entered="0" left="2" laneChangedFrom="0" laneChangedTo="0"/>
        <edge id="-68135997#1" sampledSeconds="0.49" traveltime="20.50" overlapTraveltime="21.15" density="0.05" laneDensity="0.05" occupancy="0.01" waitingTime="0.00" timeLoss="0.04" speed="7.71" speedRelative="0.93" departed="0" arrived="0" entered="1" left="0" laneChangedFrom="0" laneChangedTo="0"/>
        <edge id="-776093907#2" sampledSeconds="154.00" traveltime="51.87" overlapTraveltime="53.41" density="20.34" laneDensity="20.34" occupancy="10.03" waitingTime="86.00" timeLoss="112.64" speed="2.46" speedRelative="0.29" departed="3" arrived="0" entered="0" left="3" laneChangedFrom="0" laneChangedTo="0"/>
        <edge id="-816324771#2" sampledSeconds="213.40" traveltime="42.42" overlapTraveltime="44.00" density="20.90" laneDensity="20.90" occupancy="10.32" waitingTime="62.00" timeLoss="109.09" speed="3.98" speedRelative="0.48" departed="6" arrived="0" entered="0" left="5" laneChangedFrom="0" laneChangedTo="0"/>
        <edge id="-E0" sampledSeconds="7.94" traveltime="7.49" overlapTraveltime="7.94" density="1.72" laneDensity="1.72" occupancy="0.79" waitingTime="0.00" timeLoss="0.82" speed="10.35" speedRelative="0.74" departed="0" arrived="1" entered="1" left="0" laneChangedFrom="0" laneChangedTo="0"/>
        <edge id="-E17" sampledSeconds="18.58" traveltime="17.99" overlapTraveltime="18.63" density="2.11" laneDensity="2.11" occupancy="1.02" waitingTime="0.00" timeLoss="1.46" speed="8.14" speedRelative="0.98" departed="0" arrived="1" entered="1" left="0" laneChangedFrom="0" laneChangedTo="0"/>
        <edge id="-E39" sampledSeconds="30.73" traveltime="15.48" overlapTraveltime="16.17" density="5.27" laneDensity="5.27" occupancy="2.58" waitingTime="0.00" timeLoss="5.73" speed="6.32" speedRelative="0.76" departed="2" arrived="0" entered="0" left="2" laneChangedFrom="0" laneChangedTo="0"/>
        <edge id="-E40" sampledSeconds="32.10" traveltime="25.37" overlapTraveltime="26.13" density="3.12" laneDensity="3.12" occupancy="1.52" waitingTime="0.00" timeLoss="3.12" speed="6.75" speedRelative="0.81" departed="0" arrived="1" entered="2" left="0" laneChangedFrom="0" laneChangedTo="0"/>
        <edge id="-E7" sampledSeconds="46.14" traveltime="46.08" overlapTraveltime="47.69" density="5.07" laneDensity="5.07" occupancy="2.50" waitingTime="26.00" timeLoss="33.56" speed="3.29" speedRelative="0.24" departed="1" arrived="0" entered="0" left="1" laneChangedFrom="0" laneChangedTo="0"/>
        <edge id="1136034180#1" sampledSeconds="23.52" traveltime="15.45" overlapTraveltime="17.07" density="3.51" laneDensity="3.51" occupancy="1.63" waitingTime="0.00" timeLoss="2.58" speed="6.84" speedRelative="0.82" departed="0" arrived="0" entered="2" left="1" laneChangedFrom="0" laneChangedTo="0"/>
        <edge id="131333251#1" sampledSeconds="21.37" traveltime="19.54" overlapTraveltime="20.20" density="2.39" laneDensity="2.39" occupancy="1.14" waitingTime="0.00" timeLoss="1.96" speed="7.61" speedRelative="0.91" departed="0" arrived="1" entered="2" left="0" laneChangedFrom="0" laneChangedTo="0"/>
        <edge id="155605284#1" sampledSeconds="0.00" departed="0" arrived="0" entered="0" left="0" laneChangedFrom="0" laneChangedTo="0"/>
        <edge id="155605343#3" sampledSeconds="38.29" traveltime="38.28" overlapTraveltime="39.03" density="2.47" laneDensity="1.24" occupancy="0.60" waitingTime="0.00" timeLoss="3.93" speed="6.74" speedRelative="0.81" departed="0" arrived="0" entered="3" left="0" laneChangedFrom="1" laneChangedTo="1"/>
        <edge id="68135997#1" sampledSeconds="95.49" traveltime="48.15" overlapTraveltime="49.29" density="10.07" laneDensity="10.07" occupancy="4.98" waitingTime="47.00" timeLoss="60.22" speed="3.31" speedRelative="0.40" departed="2" arrived="0" entered="0" left="2" laneChangedFrom="0" laneChangedTo="0"/>
        <edge id="776093907#2" sampledSeconds="6.31" traveltime="16.17" overlapTraveltime="16.81" density="0.83" laneDensity="0.83" occupancy="0.40" waitingTime="0.00" timeLoss="0.36" speed="7.81" speedRelative="0.94" departed="0" arrived="0" entered="1" left="0" laneChangedFrom="0" laneChangedTo="0"/>
        <edge id="816324771#2" sampledSeconds="46.41" traveltime="23.41" overlapTraveltime="24.09" density="4.54" laneDensity="4.54" occupancy="2.19" waitingTime="0.00" timeLoss="4.55" speed="7.27" speedRelative="0.87" departed="0" arrived="1" entered="4" left="0" laneChangedFrom="0" laneChangedTo="0"/>
        <edge id="E0" sampledSeconds="92.56" traveltime="48.16" overlapTraveltime="49.34" density="20.00" laneDensity="20.00" occupancy="9.87" waitingTime="60.00" timeLoss="71.65" speed="1.66" speedRelative="0.20" departed="2" arrived="0" entered="0" left="2" laneChangedFrom="0" laneChangedTo="0"/>
        <edge id="E12" sampledSeconds="175.39" traveltime="25.31" overlapTraveltime="25.95" density="17.50" laneDensity="8.75" occupancy="4.33" waitingTime="16.00" timeLoss="39.82" speed="6.63" speedRelative="0.80" departed="7" arrived="0" entered="0" left="6" laneChangedFrom="2" laneChangedTo="2"/>
        <edge id="E13" sampledSeconds="61.29" traveltime="7.64" overlapTraveltime="8.26" density="16.85" laneDensity="8.43" occupancy="3.89" waitingTime="0.00" timeLoss="6.41" speed="7.94" speedRelative="0.95" departed="0" arrived="0" entered="8" left="7" laneChangedFrom="0" laneChangedTo="0"/>
        <edge id="E17" sampledSeconds="21.50" traveltime="21.31" overlapTraveltime="22.24" density="2.43" laneDensity="2.43" occupancy="1.19" waitingTime="0.00" timeLoss="3.64" speed="6.87" speedRelative="0.82" departed="1" arrived="0" entered="0" left="1" laneChangedFrom="0" laneChangedTo="0"/>
        <edge id="E19" sampledSeconds="94.40" traveltime="15.04" overlapTraveltime="15.80" density="13.91" laneDensity="6.96" occupancy="3.33" waitingTime="0.00" timeLoss="12.46" speed="7.48" speedRelative="0.90" departed="0" arrived="0" entered="7" left="5" laneChangedFrom="0" laneChangedTo="0"/>
        <edge id="E21" sampledSeconds="13.80" traveltime="10.51" overlapTraveltime="11.22" density="2.71" laneDensity="1.35" occupancy="0.62" waitingTime="0.00" timeLoss="1.13" speed="8.02" speedRelative="0.96" departed="0" arrived="0" entered="2" left="1" laneChangedFrom="0" laneChangedTo="0"/>
        <edge id="E22" sampledSeconds="23.98" traveltime="12.51" overlapTraveltime="13.35" density="4.66" laneDensity="2.33" occupancy="1.13" waitingTime="0.00" timeLoss="3.71" speed="6.80" speedRelative="0.82" departed="1" arrived="0" entered="1" left="1" laneChangedFrom="1" laneChangedTo="1"/>
        <edge id="E26" sampledSeconds="51.84" traveltime="12.84" overlapTraveltime="13.62" density="10.14" laneDensity="5.07" occupancy="2.44" waitingTime="0.00" timeLoss="7.10" speed="6.62" speedRelative="0.79" departed="2" arrived="0" entered="2" left="3" laneChangedFrom="1" laneChangedTo="1"/>
        <edge id="E30" sampledSeconds="6.45" traveltime="9.43" overlapTraveltime="10.09" density="1.50" laneDensity="0.75" occupancy="0.35" waitingTime="0.00" timeLoss="0.67" speed="7.60" speedRelative="0.91" departed="0" arrived="0" entered="1" left="0" laneChangedFrom="0" laneChangedTo="0"/>
        <edge id="E31" sampledSeconds="123.63" traveltime="31.38" overlapTraveltime="32.39" density="40.51" laneDensity="20.25" occupancy="9.90" waitingTime="81.00" timeLoss="97.41" speed="1.73" speedRelative="0.21" departed="2" arrived="0" entered="2" left="4" laneChangedFrom="1" laneChangedTo="1"/>
        <edge id="E39" sampledSeconds="32.49" traveltime="13.64" overlapTraveltime="14.35" density="5.57" laneDensity="5.57" occupancy="2.68" waitingTime="0.00" timeLoss="2.85" speed="7.12" speedRelative="0.86" departed="0" arrived="1" entered="3" left="0" laneChangedFrom="0" laneChangedTo="0"/>
        <edge id="E40" sampledSeconds="53.84" traveltime="26.99" overlapTraveltime="27.72" density="5.24" laneDensity="5.24" occupancy="2.58" waitingTime="0.00" timeLoss="11.73" speed="6.36" speedRelative="0.76" departed="2" arrived="0" entered="0" left="2" laneChangedFrom="0" laneChangedTo="0"/>
        <edge id="E66" sampledSeconds="0.00" departed="0" arrived="0" entered="0" left="0" laneChangedFrom="0" laneChangedTo="0"/>
        <edge id="E7" sampledSeconds="37.85" traveltime="18.36" overlapTraveltime="18.99" density="4.16" laneDensity="4.16" occupancy="2.01" waitingTime="0.00" timeLoss="2.60" speed="8.25" speedRelative="0.99" departed="0" arrived="2" entered="2" left="0" laneChangedFrom="0" laneChangedTo="0"/>
        <edge id="E8" sampledSeconds="86.19" traveltime="18.10" overlapTraveltime="18.80" density="10.73" laneDensity="5.36" occupancy="2.62" waitingTime="0.00" timeLoss="10.11" speed="7.39" speedRelative="0.89" departed="2" arrived="2" entered="3" left="2" laneChangedFrom="0" laneChangedTo="0"/>
    </interval>
    <interval begin="57660.00" end="57720.00" id="ed1">
        <edge id="-1136034180#1" sampledSeconds="67.16" traveltime="22.51" overlapTraveltime="23.36" density="10.02" laneDensity="10.02" occupancy="4.90" waitingTime="16.00" timeLoss="25.78" speed="5.00" speedRelative="0.60" departed="2" arrived="0" entered="1" left="2" laneChangedFrom="0" laneChangedTo="0"/>
        <edge id="-131333251#1" sampledSeconds="20.84" traveltime="20.78" overlapTraveltime="21.56" density="2.33" laneDensity="2.33" occupancy="1.14" waitingTime="0.00" timeLoss="3.52" speed="7.15" speedRelative="0.86" departed="1" arrived="0" entered="0" left="1" laneChangedFrom="0" laneChangedTo="0"/>
        <edge id="-155605284#1" sampledSeconds="37.87" traveltime="18.04" overlapTraveltime="18.93" density="5.14" laneDensity="5.14" occupancy="2.51" waitingTime="0.00" timeLoss="6.30" speed="6.76" speedRelative="0.81" departed="2" arrived="0" entered="0" left="2" laneChangedFrom="0" laneChangedTo="0"/>
        <edge id="-68135997#1" sampledSeconds="40.82" traveltime="20.15" overlapTraveltime="20.80" density="4.30" laneDensity="4.30" occupancy="2.11" waitingTime="0.00" timeLoss="2.91" speed="7.84" speedRelative="0.94" departed="0" arrived="2" entered="1" left="0" laneChangedFrom="0" laneChangedTo="0"/>
        <edge id="-776093907#2" sampledSeconds="84.96" traveltime="29.12" overlapTraveltime="29.94" density="11.22" laneDensity="11.22" occupancy="5.57" waitingTime="31.00" timeLoss="41.50" speed="4.38" speedRelative="0.53" departed="3" arrived="0" entered="0" left="2" laneChangedFrom="0" laneChangedTo="0"/>
        <edge id="-816324771#2" sampledSeconds="181.94" traveltime="37.52" overlapTraveltime="38.71" density="17.82" laneDensity="17.82" occupancy="8.82" waitingTime="61.00" timeLoss="86.62" speed="4.53" speedRelative="0.54" departed="5" arrived="0" entered="0" left="2" laneChangedFrom="0" laneChangedTo="0"/>
        <edge id="-E0" sampledSeconds="13.43" traveltime="6.52" overlapTraveltime="6.92" density="2.90" laneDensity="2.90" occupancy="1.36" waitingTime="0.00" timeLoss="1.93" speed="11.88" speedRelative="0.85" departed="0" arrived="2" entered="2" left="0" laneChangedFrom="0" laneChangedTo="0"/>
        <edge id="-E17" sampledSeconds="8.39" traveltime="20.23" overlapTraveltime="20.92" density="0.95" laneDensity="0.95" occupancy="0.46" waitingTime="0.00" timeLoss="0.76" speed="7.25" speedRelative="0.87" departed="0" arrived="0" entered="1" left="0" laneChangedFrom="0" laneChangedTo="0"/>
        <edge id="-E39" sampledSeconds="56.15" traveltime="28.12" overlapTraveltime="29.55" density="9.63" laneDensity="9.63" occupancy="4.69" waitingTime="20.00" timeLoss="31.91" speed="3.46" speedRelative="0.42" departed="2" arrived="0" entered="0" left="2" laneChangedFrom="0" laneChangedTo="0"/>
        <edge id="-E40" sampledSeconds="63.78" traveltime="22.81" overlapTraveltime="23.49" density="6.20" laneDensity="6.20" occupancy="3.05" waitingTime="0.00" timeLoss="4.92" speed="7.51" speedRelative="0.90" departed="0" arrived="3" entered="2" left="0" laneChangedFrom="0" laneChangedTo="0"/>
        <edge id="-E7" sampledSeconds="16.24" traveltime="16.00" overlapTraveltime="16.78" density="1.78" laneDensity="1.78" occupancy="0.87" waitingTime="0.00" timeLoss="3.47" speed="9.34" speedRelative="0.67" departed="1" arrived="0" entered="0" left="1" laneChangedFrom="0" laneChangedTo="0"/>
        <edge id="1136034180#1" sampledSeconds="55.43" traveltime="14.60" overlapTraveltime="15.57" density="8.27" laneDensity="8.27" occupancy="3.97" waitingTime="0.00" timeLoss="4.98" speed="7.50" speedRelative="0.90" departed="0" arrived="3" entered="3" left="1" laneChangedFrom="0" laneChangedTo="0"/>
        <edge id="131333251#1" sampledSeconds="38.78" traveltime="19.67" overlapTraveltime="20.33" density="4.35" laneDensity="4.35" occupancy="2.13" waitingTime="0.00" timeLoss="3.08" speed="7.56" speedRelative="0.91" departed="0" arrived="2" entered="1" left="0" laneChangedFrom="0" laneChangedTo="0"/>
        <edge id="155605284#1" sampledSeconds="28.54" traveltime="14.88" overlapTraveltime="15.45" density="3.81" laneDensity="3.81" occupancy="1.82" waitingTime="0.00" timeLoss="2.28" speed="8.41" speedRelative="1.01" departed="0" arrived="1" entered="3" left="0" laneChangedFrom="0" laneChangedTo="0"/>
        <edge id="155605343#3" sampledSeconds="185.02" traveltime="43.02" overlapTraveltime="44.05" density="11.95" laneDensity="5.97" occupancy="2.94" waitingTime="11.00" timeLoss="33.48" speed="5.97" speedRelative="0.72" departed="0" arrived="0" entered="3" left="4" laneChangedFrom="1" laneChangedTo="1"/>
        <edge id="68135997#1" sampledSeconds="109.00" traveltime="58.12" overlapTraveltime="59.96" density="11.49" laneDensity="11.49" occupancy="5.75" waitingTime="62.00" timeLoss="71.22" speed="2.72" speedRelative="0.33" departed="2" arrived="0" entered="0" left="0" laneChangedFrom="0" laneChangedTo="0"/>
        <edge id="776093907#2" sampledSeconds="10.67" traveltime="16.45" overlapTraveltime="17.08" density="1.41" laneDensity="1.41" occupancy="0.68" waitingTime="0.00" timeLoss="0.76" speed="7.69" speedRelative="0.92" departed="0" arrived="1" entered="0" left="0" laneChangedFrom="0" laneChangedTo="0"/>
        <edge id="816324771#2" sampledSeconds="127.21" traveltime="21.77" overlapTraveltime="22.40" density="12.46" laneDensity="12.46" occupancy="6.09" waitingTime="0.00" timeLoss="11.65" speed="7.82" speedRelative="0.94" departed="0" arrived="6" entered="4" left="0" laneChangedFrom="0" laneChangedTo="0"/>
        <edge id="E0" sampledSeconds="13.53" traveltime="13.46" overlapTraveltime="14.43" density="2.92" laneDensity="2.92" occupancy="1.41" waitingTime="0.00" timeLoss="2.32" speed="5.69" speedRelative="0.68" departed="1" arrived="0" entered="0" left="1" laneChangedFrom="0" laneChangedTo="0"/>
        <edge id="E12" sampledSeconds="263.34" traveltime="33.00" overlapTraveltime="33.96" density="26.28" laneDensity="13.14" occupancy="7.71" waitingTime="44.00" timeLoss="101.12" speed="5.09" speedRelative="0.61" departed="8" arrived="0" entered="0" left="9" laneChangedFrom="3" laneChangedTo="3"/>
        <edge id="E13" sampledSeconds="91.92" traveltime="8.01" overlapTraveltime="8.74" density="25.28" laneDensity="12.64" occupancy="6.54" waitingTime="0.00" timeLoss="8.19" speed="7.58" speedRelative="0.91" departed="0" arrived="0" entered="10" left="11" laneChangedFrom="1" laneChangedTo="1"/>
        <edge id="E17" sampledSeconds="20.27" traveltime="20.08" overlapTraveltime="20.97" density="2.29" laneDensity="2.29" occupancy="1.12" waitingTime="0.00" timeLoss="2.93" speed="7.28" speedRelative="0.87" departed="1" arrived="0" entered="0" left="1" laneChangedFrom="0" laneChangedTo="0"/>
        <edge id="E19" sampledSeconds="121.15" traveltime="14.27" overlapTraveltime="15.06" density="17.86" laneDensity="8.93" occupancy="4.83" waitingTime="0.00" timeLoss="12.38" speed="7.89" speedRelative="0.95" departed="0" arrived="0" entered="10" left="6" laneChangedFrom="0" laneChangedTo="0"/>
        <edge id="E21" sampledSeconds="197.01" traveltime="24.01" overlapTraveltime="25.05" density="38.63" laneDensity="19.31" occupancy="9.34" waitingTime="84.00" timeLoss="118.46" speed="3.59" speedRelative="0.43" departed="0" arrived="0" entered="8" left="8" laneChangedFrom="1" laneChangedTo="1"/>
        <edge id="E22" sampledSeconds="74.37" traveltime="13.60" overlapTraveltime="14.61" density="14.46" laneDensity="7.23" occupancy="3.41" waitingTime="12.00" timeLoss="23.65" speed="6.21" speedRelative="0.75" departed="1" arrived="1" entered="4" left="5" laneChangedFrom="1" laneChangedTo="1"/>
        <edge id="E26" sampledSeconds="109.84" traveltime="16.11" overlapTraveltime="18.60" density="21.49" laneDensity="10.75" occupancy="4.82" waitingTime="29.00" timeLoss="44.63" speed="4.85" speedRelative="0.58" departed="2" arrived="4" entered="4" left="3" laneChangedFrom="1" laneChangedTo="1"/>
        <edge id="E30" sampledSeconds="37.55" traveltime="8.74" overlapTraveltime="9.40" density="8.73" laneDensity="4.37" occupancy="2.02" waitingTime="0.00" timeLoss="4.11" speed="8.16" speedRelative="0.98" departed="0" arrived="1" entered="4" left="3" laneChangedFrom="2" laneChangedTo="2"/>
        <edge id="E31" sampledSeconds="36.60" traveltime="9.10" overlapTraveltime="9.86" density="11.99" laneDensity="6.00" occupancy="2.83" waitingTime="3.00" timeLoss="11.94" speed="5.66" speedRelative="0.68" departed="2" arrived="0" entered="2" left="3" laneChangedFrom="0" laneChangedTo="0"/>
        <edge id="E39" sampledSeconds="35.09" traveltime="12.49" overlapTraveltime="13.13" density="6.02" laneDensity="6.02" occupancy="2.89" waitingTime="0.00" timeLoss="3.26" speed="7.79" speedRelative="0.93" departed="0" arrived="4" entered="2" left="0" laneChangedFrom="0" laneChangedTo="0"/>
        <edge id="E40" sampledSeconds="55.97" traveltime="27.58" overlapTraveltime="28.82" density="5.44" laneDensity="5.44" occupancy="2.67" waitingTime="1.00" timeLoss="11.98" speed="6.12" speedRelative="0.73" departed="2" arrived="0" entered="0" left="2" laneChangedFrom="0" laneChangedTo="0"/>
        <edge id="E66" sampledSeconds="93.28" traveltime="23.34" overlapTraveltime="24.01" density="9.31" laneDensity="4.65" occupancy="2.27" waitingTime="0.00" timeLoss="8.85" speed="7.16" speedRelative="0.86" departed="0" arrived="3" entered="4" left="0" laneChangedFrom="0" laneChangedTo="0"/>
        <edge id="E7" sampledSeconds="54.59" traveltime="19.85" overlapTraveltime="20.49" density="6.00" laneDensity="6.00" occupancy="2.92" waitingTime="0.00" timeLoss="4.63" speed="7.65" speedRelative="0.92" departed="0" arrived="2" entered="3" left="0" laneChangedFrom="0" laneChangedTo="0"/>
        <edge id="E8" sampledSeconds="147.71" traveltime="27.38" overlapTraveltime="28.53" density="18.38" laneDensity="9.19" occupancy="4.48" waitingTime="35.00" timeLoss="58.12" speed="4.87" speedRelative="0.58" departed="2" arrived="2" entered="3" left="4" laneChangedFrom="1" laneChangedTo="1"/>
    </interval>
    <interval begin="57720.00" end="57780.00" id="ed1">
        <edge id="-1136034180#1" sampledSeconds="98.94" traveltime="23.00" overlapTraveltime="23.98" density="14.76" laneDensity="14.76" occupancy="7.23" waitingTime="17.00" timeLoss="37.59" speed="4.87" speedRelative="0.58" departed="4" arrived="1" entered="0" left="4" laneChangedFrom="0" laneChangedTo="0"/>
        <edge id="-131333251#1" sampledSeconds="21.99" traveltime="21.89" overlapTraveltime="22.74" density="2.46" laneDensity="2.46" occupancy="1.21" waitingTime="0.00" timeLoss="3.86" speed="6.78" speedRelative="0.81" departed="1" arrived="0" entered="0" left="1" laneChangedFrom="0" laneChangedTo="0"/>
        <edge id="-155605284#1" sampledSeconds="41.28" traveltime="18.60" overlapTraveltime="19.51" density="5.60" laneDensity="5.60" occupancy="2.74" waitingTime="0.00" timeLoss="6.23" speed="6.55" speedRelative="0.79" departed="2" arrived="0" entered="0" left="2" laneChangedFrom="0" laneChangedTo="0"/>
        <edge id="-68135997#1" sampledSeconds="20.62" traveltime="19.98" overlapTraveltime="20.62" density="2.17" laneDensity="2.17" occupancy="1.05" waitingTime="0.00" timeLoss="1.32" speed="7.91" speedRelative="0.95" departed="0" arrived="1" entered="1" left="0" laneChangedFrom="0" laneChangedTo="0"/>
        <edge id="-776093907#2" sampledSeconds="71.70" traveltime="23.44" overlapTraveltime="24.48" density="9.47" laneDensity="9.47" occupancy="4.60" waitingTime="17.00" timeLoss="26.74" speed="5.36" speedRelative="0.64" departed="3" arrived="0" entered="0" left="4" laneChangedFrom="0" laneChangedTo="0"/>
        <edge id="-816324771#2" sampledSeconds="207.33" traveltime="37.93" overlapTraveltime="39.85" density="20.30" laneDensity="20.30" occupancy="9.88" waitingTime="51.00" timeLoss="94.35" speed="4.40" speedRelative="0.53" departed="5" arrived="0" entered="0" left="8" laneChangedFrom="0" laneChangedTo="0"/>
        <edge id="-E0" sampledSeconds="6.49" traveltime="6.11" overlapTraveltime="6.49" density="1.40" laneDensity="1.40" occupancy="0.66" waitingTime="0.00" timeLoss="0.58" speed="12.65" speedRelative="0.91" departed="0" arrived="1" entered="1" left="0" laneChangedFrom="0" laneChangedTo="0"/>
        <edge id="-E17" sampledSeconds="12.00" traveltime="19.94" overlapTraveltime="20.59" density="1.36" laneDensity="1.36" occupancy="0.68" waitingTime="0.00" timeLoss="0.92" speed="7.36" speedRelative="0.88" departed="0" arrived="1" entered="0" left="0" laneChangedFrom="0" laneChangedTo="0"/>
        <edge id="-E39" sampledSeconds="105.00" traveltime="58.42" overlapTraveltime="61.43" density="18.00" laneDensity="18.00" occupancy="9.00" waitingTime="75.00" timeLoss="84.24" speed="1.66" speedRelative="0.20" departed="2" arrived="0" entered="0" left="0" laneChangedFrom="0" laneChangedTo="0"/>
        <edge id="-E40" sampledSeconds="19.78" traveltime="19.66" overlapTraveltime="20.24" density="1.92" laneDensity="1.92" occupancy="0.95" waitingTime="0.00" timeLoss="1.33" speed="8.72" speedRelative="1.05" departed="0" arrived="1" entered="1" left="0" laneChangedFrom="0" laneChangedTo="0"/>
        <edge id="-E7" sampledSeconds="16.14" traveltime="15.38" overlapTraveltime="16.68" density="1.77" laneDensity="1.77" occupancy="0.85" waitingTime="0.00" timeLoss="4.55" speed="9.40" speedRelative="0.68" departed="1" arrived="0" entered="0" left="1" laneChangedFrom="0" laneChangedTo="0"/>
        <edge id="1136034180#1" sampledSeconds="38.82" traveltime="15.30" overlapTraveltime="15.97" density="5.79" laneDensity="5.79" occupancy="2.80" waitingTime="0.00" timeLoss="3.39" speed="7.31" speedRelative="0.88" departed="0" arrived="2" entered="3" left="0" laneChangedFrom="0" laneChangedTo="0"/>
        <edge id="131333251#1" sampledSeconds="34.21" traveltime="18.09" overlapTraveltime="18.70" density="3.83" laneDensity="3.83" occupancy="1.87" waitingTime="0.00" timeLoss="2.47" speed="8.22" speedRelative="0.99" departed="0" arrived="1" entered="2" left="0" laneChangedFrom="0" laneChangedTo="0"/>
        <edge id="155605284#1" sampledSeconds="16.00" traveltime="14.05" overlapTraveltime="14.61" density="2.14" laneDensity="2.14" occupancy="1.06" waitingTime="0.00" timeLoss="1.15" speed="8.89" speedRelative="1.07" departed="0" arrived="2" entered="0" left="0" laneChangedFrom="0" laneChangedTo="0"/>
        <edge id="155605343#3" sampledSeconds="137.79" traveltime="49.75" overlapTraveltime="50.64" density="8.90" laneDensity="4.45" occupancy="2.21" waitingTime="35.00" timeLoss="48.56" speed="5.20" speedRelative="0.62" departed="0" arrived="0" entered="2" left="1" laneChangedFrom="2" laneChangedTo="2"/>
        <edge id="68135997#1" sampledSeconds="90.89" traveltime="43.66" overlapTraveltime="44.19" density="9.58" laneDensity="9.58" occupancy="4.70" waitingTime="35.00" timeLoss="49.10" speed="3.69" speedRelative="0.44" departed="2" arrived="0" entered="0" left="4" laneChangedFrom="0" laneChangedTo="0"/>
        <edge id="776093907#2" sampledSeconds="33.57" traveltime="16.17" overlapTraveltime="16.78" density="4.43" laneDensity="4.43" occupancy="2.13" waitingTime="0.00" timeLoss="2.55" speed="7.83" speedRelative="0.94" departed="0" arrived="2" entered="2" left="0" laneChangedFrom="0" laneChangedTo="0"/>
        <edge id="816324771#2" sampledSeconds="87.44" traveltime="21.86" overlapTraveltime="22.47" density="8.56" laneDensity="8.56" occupancy="4.16" waitingTime="0.00" timeLoss="7.15" speed="7.80" speedRelative="0.94" departed="0" arrived="4" entered="4" left="0" laneChangedFrom="0" laneChangedTo="0"/>
        <edge id="E0" sampledSeconds="12.06" traveltime="12.02" overlapTraveltime="12.86" density="2.61" laneDensity="2.61" occupancy="1.26" waitingTime="0.00" timeLoss="2.61" speed="6.39" speedRelative="0.77" departed="1" arrived="0" entered="0" left="1" laneChangedFrom="0" laneChangedTo="0"/>
        <edge id="E12" sampledSeconds="315.00" traveltime="49.68" overlapTraveltime="51.17" density="31.44" laneDensity="15.72" occupancy="7.86" waitingTime="142.00" timeLoss="189.83" speed="3.36" speedRelative="0.40" departed="7" arrived="0" entered="0" left="0" laneChangedFrom="3" laneChangedTo="3"/>
        <edge id="E13" sampledSeconds="28.11" traveltime="8.48" overlapTraveltime="9.18" density="7.73" laneDensity="3.87" occupancy="1.75" waitingTime="0.00" timeLoss="2.80" speed="7.15" speedRelative="0.86" departed="0" arrived="0" entered="3" left="3" laneChangedFrom="0" laneChangedTo="0"/>
        <edge id="E17" sampledSeconds="20.50" traveltime="20.31" overlapTraveltime="21.21" density="2.31" laneDensity="2.31" occupancy="1.13" waitingTime="0.00" timeLoss="3.06" speed="7.20" speedRelative="0.86" departed="1" arrived="0" entered="0" left="1" laneChangedFrom="0" laneChangedTo="0"/>
        <edge id="E19" sampledSeconds="131.27" traveltime="15.74" overlapTraveltime="16.57" density="19.35" laneDensity="9.67" occupancy="4.83" waitingTime="0.00" timeLoss="14.35" speed="7.14" speedRelative="0.86" departed="0" arrived="0" entered="5" left="10" laneChangedFrom="2" laneChangedTo="2"/>
        <edge id="E21" sampledSeconds="354.11" traveltime="43.19" overlapTraveltime="46.06" density="69.43" laneDensity="34.72" occupancy="20.86" waitingTime="220.00" timeLoss="248.92" speed="1.98" speedRelative="0.24" departed="0" arrived="0" entered="9" left="1" laneChangedFrom="4" laneChangedTo="4"/>
        <edge id="E22" sampledSeconds="113.35" traveltime="58.83" overlapTraveltime="62.26" density="22.04" laneDensity="11.02" occupancy="5.49" waitingTime="86.00" timeLoss="92.75" speed="1.46" speedRelative="0.17" departed="1" arrived="0" entered="1" left="0" laneChangedFrom="1" laneChangedTo="1"/>
        <edge id="E26" sampledSeconds="178.05" traveltime="39.98" overlapTraveltime="42.33" density="34.84" laneDensity="17.42" occupancy="8.65" waitingTime="115.00" timeLoss="131.44" speed="2.13" speedRelative="0.26" departed="2" arrived="0" entered="3" left="0" laneChangedFrom="2" laneChangedTo="2"/>
        <edge id="E30" sampledSeconds="23.47" traveltime="9.55" overlapTraveltime="10.16" density="5.46" laneDensity="2.73" occupancy="1.26" waitingTime="0.00" timeLoss="2.39" speed="7.55" speedRelative="0.91" departed="0" arrived="3" entered="2" left="0" laneChangedFrom="0" laneChangedTo="0"/>
        <edge id="E31" sampledSeconds="62.81" traveltime="15.19" overlapTraveltime="16.00" density="20.58" laneDensity="10.29" occupancy="4.88" waitingTime="17.00" timeLoss="35.95" speed="3.49" speedRelative="0.42" departed="2" arrived="0" entered="2" left="5" laneChangedFrom="0" laneChangedTo="0"/>
        <edge id="E39" sampledSeconds="31.33" traveltime="13.43" overlapTraveltime="14.14" density="5.37" laneDensity="5.37" occupancy="2.53" waitingTime="0.00" timeLoss="2.93" speed="7.23" speedRelative="0.87" departed="0" arrived="2" entered="3" left="0" laneChangedFrom="0" laneChangedTo="0"/>
        <edge id="E40" sampledSeconds="105.00" traveltime="55.70" overlapTraveltime="57.33" density="10.21" laneDensity="10.21" occupancy="5.11" waitingTime="57.00" timeLoss="67.35" speed="3.08" speedRelative="0.37" departed="2" arrived="0" entered="0" left="0" laneChangedFrom="0" laneChangedTo="0"/>