<?xml version="1.0" encoding="UTF-8"?>

<!-- generated on 2025-08-17 04:42:23 by Eclipse SUMO GUI Version 1.23.1
<sumoConfiguration xmlns:xsi="http://www.w3.org/2001/XMLSchema-instance" xsi:noNamespaceSchemaLocation="http://sumo.dlr.de/xsd/sumoConfiguration.xsd">

    <input>
        <net-file value="berlin_original.net.xml"/>
        <route-files value="berlin_original.rou.xml"/>
        <additional-files value="berlin_original.add.xml,meandata.add.xml"/>
    </input>

    <output>
        <fcd-output value="outputt/offPeak_GW/fcd_emergency.xml"/>
        <summary-output value="outputt/offPeak_GW/summary.xml"/>
        <tripinfo-output value="outputt/offPeak_GW/tripinfo_emergency.xml"/>
        <stop-output value="outputt/offPeak_GW/stopinfo.xml"/>
        <edgedata-output value="outputt/offPeak_GW/edgedata.xml"/>
        <lanedata-output value="outputt/offPeak_GW/lanedata.xml"/>
        <statistic-output value="outputt/offPeak_GW/statistics.xml"/>
    </output>

    <time>
        <begin value="61200"/>
        <end value="64800"/>
    </time>

    <report>
        <duration-log.statistics value="true"/>
    </report>

    <traci_server>
        <remote-port value="61213"/>
    </traci_server>

    <gui_only>
        <quit-on-end value="true"/>
    </gui_only>

</sumoConfiguration>
-->

<meandata xmlns:xsi="http://www.w3.org/2001/XMLSchema-instance" xsi:noNamespaceSchemaLocation="http://sumo.dlr.de/xsd/meandata_file.xsd">
    <interval begin="61200.00" end="61260.00" id="ld1">
        <edge id="-1136034180#1">
            <lane id="-1136034180#1_0" sampledSeconds="0.00" departed="0" arrived="0" entered="0" left="0" laneChangedFrom="0" laneChangedTo="0"/>
            <lane id="-1136034180#1_1" sampledSeconds="117.59" traveltime="33.83" overlapTraveltime="34.84" density="17.54" laneDensity="17.54" occupancy="8.62" waitingTime="51.00" timeLoss="69.35" speed="3.35" speedRelative="0.40" departed="3" arrived="1" entered="1" left="2" laneChangedFrom="0" laneChangedTo="0"/>
        </edge>
        <edge id="-131333251#1">
            <lane id="-131333251#1_0" sampledSeconds="0.00" departed="0" arrived="0" entered="0" left="0" laneChangedFrom="0" laneChangedTo="0"/>
            <lane id="-131333251#1_1" sampledSeconds="19.75" traveltime="19.69" overlapTraveltime="20.43" density="2.21" laneDensity="2.21" occupancy="1.08" waitingTime="0.00" timeLoss="3.07" speed="7.55" speedRelative="0.91" departed="1" arrived="0" entered="0" left="1" laneChangedFrom="0" laneChangedTo="0"/>
        </edge>
        <edge id="-155605284#1">
            <lane id="-155605284#1_0" sampledSeconds="0.00" departed="0" arrived="0" entered="0" left="0" laneChangedFrom="0" laneChangedTo="0"/>
            <lane id="-155605284#1_1" sampledSeconds="27.83" traveltime="19.43" overlapTraveltime="20.39" density="3.78" laneDensity="3.78" occupancy="1.85" waitingTime="0.00" timeLoss="4.72" speed="6.27" speedRelative="0.75" departed="2" arrived="0" entered="0" left="1" laneChangedFrom="0" laneChangedTo="0"/>
        </edge>
        <edge id="-68135997#1">
            <lane id="-68135997#1_0" sampledSeconds="0.00" departed="0" arrived="0" entered="0" left="0" laneChangedFrom="0" laneChangedTo="0"/>
            <lane id="-68135997#1_1" sampledSeconds="0.00" departed="0" arrived="0" entered="0" left="0" laneChangedFrom="0" laneChangedTo="0"/>
        </edge>
        <edge id="-776093907#2">
            <lane id="-776093907#2_0" sampledSeconds="0.00" departed="0" arrived="0" entered="0" left="0" laneChangedFrom="0" laneChangedTo="0"/>
            <lane id="-776093907#2_1" sampledSeconds="0.00" departed="0" arrived="0" entered="0" left="0" laneChangedFrom="0" laneChangedTo="0"/>
        </edge>
        <edge id="-816324771#2">
            <lane id="-816324771#2_0" sampledSeconds="0.00" departed="0" arrived="0" entered="0" left="0" laneChangedFrom="0" laneChangedTo="0"/>
            <lane id="-816324771#2_1" sampledSeconds="187.54" traveltime="43.68" overlapTraveltime="44.68" density="18.37" laneDensity="18.37" occupancy="9.09" waitingTime="61.00" timeLoss="97.77" speed="3.92" speedRelative="0.47" departed="5" arrived="0" entered="0" left="4" laneChangedFrom="0" laneChangedTo="0"/>
        </edge>
        <edge id="-E0">
            <lane id="-E0_0" sampledSeconds="0.00" departed="0" arrived="0" entered="0" left="0" laneChangedFrom="0" laneChangedTo="0"/>
            <lane id="-E0_1" sampledSeconds="7.94" traveltime="7.49" overlapTraveltime="7.94" density="1.72" laneDensity="1.72" occupancy="0.79" waitingTime="0.00" timeLoss="0.82" speed="10.35" speedRelative="0.74" departed="0" arrived="1" entered="1" left="0" laneChangedFrom="0" laneChangedTo="0"/>
        </edge>
        <edge id="-E17">
            <lane id="-E17_0" sampledSeconds="0.00" departed="0" arrived="0" entered="0" left="0" laneChangedFrom="0" laneChangedTo="0"/>
            <lane id="-E17_1" sampledSeconds="18.58" traveltime="17.99" overlapTraveltime="18.63" density="2.11" laneDensity="2.11" occupancy="1.02" waitingTime="0.00" timeLoss="1.46" speed="8.14" speedRelative="0.98" departed="0" arrived="1" entered="1" left="0" laneChangedFrom="0" laneChangedTo="0"/>
        </edge>
        <edge id="-E39">
            <lane id="-E39_0" sampledSeconds="0.00" departed="0" arrived="0" entered="0" left="0" laneChangedFrom="0" laneChangedTo="0"/>
            <lane id="-E39_1" sampledSeconds="30.73" traveltime="15.48" overlapTraveltime="16.17" density="5.27" laneDensity="5.27" occupancy="2.58" waitingTime="0.00" timeLoss="5.73" speed="6.32" speedRelative="0.76" departed="2" arrived="0" entered="0" left="2" laneChangedFrom="0" laneChangedTo="0"/>
        </edge>
        <edge id="-E40">
            <lane id="-E40_0" sampledSeconds="0.00" departed="0" arrived="0" entered="0" left="0" laneChangedFrom="0" laneChangedTo="0"/>
            <lane id="-E40_1" sampledSeconds="32.11" traveltime="25.39" overlapTraveltime="26.15" density="3.12" laneDensity="3.12" occupancy="1.52" waitingTime="0.00" timeLoss="3.14" speed="6.75" speedRelative="0.81" departed="0" arrived="1" entered="2" left="0" laneChangedFrom="0" laneChangedTo="0"/>
        </edge>
        <edge id="-E7">
            <lane id="-E7_0" sampledSeconds="0.00" departed="0" arrived="0" entered="0" left="0" laneChangedFrom="0" laneChangedTo="0"/>
            <lane id="-E7_1" sampledSeconds="46.16" traveltime="46.08" overlapTraveltime="47.71" density="5.07" laneDensity="5.07" occupancy="2.50" waitingTime="26.00" timeLoss="33.59" speed="3.29" speedRelative="0.24" departed="1" arrived="0" entered="0" left="1" laneChangedFrom="0" laneChangedTo="0"/>
        </edge>
        <edge id="1136034180#1">
            <lane id="1136034180#1_0" sampledSeconds="0.00" departed="0" arrived="0" entered="0" left="0" laneChangedFrom="0" laneChangedTo="0"/>
            <lane id="1136034180#1_1" sampledSeconds="24.26" traveltime="15.51" overlapTraveltime="17.10" density="3.62" laneDensity="3.62" occupancy="1.69" waitingTime="0.00" timeLoss="2.67" speed="6.83" speedRelative="0.82" departed="0" arrived="0" entered="2" left="1" laneChangedFrom="0" laneChangedTo="0"/>
        </edge>
        <edge id="131333251#1">
            <lane id="131333251#1_0" sampledSeconds="0.00" departed="0" arrived="0" entered="0" left="0" laneChangedFrom="0" laneChangedTo="0"/>
            <lane id="131333251#1_1" sampledSeconds="21.37" traveltime="19.54" overlapTraveltime="20.20" density="2.39" laneDensity="2.39" occupancy="1.14" waitingTime="0.00" timeLoss="1.96" speed="7.61" speedRelative="0.91" departed="0" arrived="1" entered="2" left="0" laneChangedFrom="0" laneChangedTo="0"/>
        </edge>
        <edge id="155605284#1">
            <lane id="155605284#1_0" sampledSeconds="0.00" departed="0" arrived="0" entered="0" left="0" laneChangedFrom="0" laneChangedTo="0"/>
            <lane id="155605284#1_1" sampledSeconds="0.00" departed="0" arrived="0" entered="0" left="0" laneChangedFrom="0" laneChangedTo="0"/>
        </edge>
        <edge id="155605343#3">
            <lane id="155605343#3_0" sampledSeconds="0.00" departed="0" arrived="0" entered="0" left="0" laneChangedFrom="0" laneChangedTo="0"/>
            <lane id="155605343#3_1" sampledSeconds="32.31" traveltime="38.50" overlapTraveltime="39.25" density="2.09" laneDensity="2.09" occupancy="1.02" waitingTime="0.00" timeLoss="3.57" speed="6.70" speedRelative="0.80" departed="0" arrived="0" entered="2" left="0" laneChangedFrom="0" laneChangedTo="1"/>
            <lane id="155605343#3_2" sampledSeconds="5.67" traveltime="37.93" overlapTraveltime="38.67" density="0.37" laneDensity="0.37" occupancy="0.17" waitingTime="0.00" timeLoss="0.44" speed="6.80" speedRelative="0.82" departed="0" arrived="0" entered="1" left="0" laneChangedFrom="1" laneChangedTo="0"/>
        </edge>
        <edge id="68135997#1">
            <lane id="68135997#1_0" sampledSeconds="0.00" departed="0" arrived="0" entered="0" left="0" laneChangedFrom="0" laneChangedTo="0"/>
            <lane id="68135997#1_1" sampledSeconds="0.00" departed="0" arrived="0" entered="0" left="0" laneChangedFrom="0" laneChangedTo="0"/>
        </edge>
        <edge id="776093907#2">
            <lane id="776093907#2_0" sampledSeconds="0.00" departed="0" arrived="0" entered="0" left="0" laneChangedFrom="0" laneChangedTo="0"/>
            <lane id="776093907#2_1" sampledSeconds="0.00" departed="0" arrived="0" entered="0" left="0" laneChangedFrom="0" laneChangedTo="0"/>
        </edge>
        <edge id="816324771#2">
            <lane id="816324771#2_0" sampledSeconds="0.00" departed="0" arrived="0" entered="0" left="0" laneChangedFrom="0" laneChangedTo="0"/>
            <lane id="816324771#2_1" sampledSeconds="44.47" traveltime="23.14" overlapTraveltime="23.84" density="4.35" laneDensity="4.35" occupancy="2.12" waitingTime="0.00" timeLoss="3.99" speed="7.35" speedRelative="0.88" departed="0" arrived="1" entered="3" left="0" laneChangedFrom="0" laneChangedTo="0"/>
        </edge>
        <edge id="E0">
            <lane id="E0_0" sampledSeconds="0.00" departed="0" arrived="0" entered="0" left="0" laneChangedFrom="0" laneChangedTo="0"/>
            <lane id="E0_1" sampledSeconds="92.65" traveltime="48.18" overlapTraveltime="49.39" density="20.02" laneDensity="20.02" occupancy="9.88" waitingTime="60.00" timeLoss="71.74" speed="1.66" speedRelative="0.20" departed="2" arrived="0" entered="0" left="2" laneChangedFrom="0" laneChangedTo="0"/>
        </edge>
        <edge id="E12">
            <lane id="E12_0" sampledSeconds="0.00" departed="0" arrived="0" entered="0" left="0" laneChangedFrom="0" laneChangedTo="0"/>
            <lane id="E12_1" sampledSeconds="151.93" traveltime="26.37" overlapTraveltime="27.06" density="15.16" laneDensity="15.16" occupancy="7.52" waitingTime="16.00" timeLoss="38.35" speed="6.36" speedRelative="0.76" departed="7" arrived="0" entered="0" left="4" laneChangedFrom="2" laneChangedTo="0"/>
            <lane id="E12_2" sampledSeconds="23.45" traveltime="19.91" overlapTraveltime="20.53" density="2.34" laneDensity="2.34" occupancy="1.14" waitingTime="0.00" timeLoss="1.47" speed="8.38" speedRelative="1.01" departed="0" arrived="0" entered="0" left="2" laneChangedFrom="0" laneChangedTo="2"/>
        </edge>
        <edge id="E13">
            <lane id="E13_0" sampledSeconds="0.00" departed="0" arrived="0" entered="0" left="0" laneChangedFrom="0" laneChangedTo="0"/>
            <lane id="E13_1" sampledSeconds="35.09" traveltime="8.12" overlapTraveltime="8.77" density="9.65" laneDensity="9.65" occupancy="4.47" waitingTime="0.00" timeLoss="4.41" speed="7.48" speedRelative="0.90" departed="0" arrived="0" entered="4" left="4" laneChangedFrom="0" laneChangedTo="0"/>
            <lane id="E13_2" sampledSeconds="15.86" traveltime="7.34" overlapTraveltime="7.93" density="4.36" laneDensity="4.36" occupancy="2.02" waitingTime="0.00" timeLoss="1.20" speed="8.28" speedRelative="0.99" departed="0" arrived="0" entered="2" left="2" laneChangedFrom="0" laneChangedTo="0"/>
        </edge>
        <edge id="E17">
            <lane id="E17_0" sampledSeconds="0.00" departed="0" arrived="0" entered="0" left="0" laneChangedFrom="0" laneChangedTo="0"/>
            <lane id="E17_1" sampledSeconds="21.50" traveltime="21.31" overlapTraveltime="22.24" density="2.43" laneDensity="2.43" occupancy="1.19" waitingTime="0.00" timeLoss="3.64" speed="6.87" speedRelative="0.82" departed="1" arrived="0" entered="0" left="1" laneChangedFrom="0" laneChangedTo="0"/>
        </edge>
        <edge id="E19">
            <lane id="E19_0" sampledSeconds="0.00" departed="0" arrived="0" entered="0" left="0" laneChangedFrom="0" laneChangedTo="0"/>
            <lane id="E19_1" sampledSeconds="63.38" traveltime="15.70" overlapTraveltime="16.51" density="9.34" laneDensity="9.34" occupancy="4.48" waitingTime="0.00" timeLoss="9.47" speed="7.15" speedRelative="0.86" departed="0" arrived="0" entered="4" left="3" laneChangedFrom="0" laneChangedTo="0"/>
            <lane id="E19_2" sampledSeconds="29.11" traveltime="13.95" overlapTraveltime="14.62" density="4.29" laneDensity="4.29" occupancy="2.06" waitingTime="0.00" timeLoss="2.84" speed="8.08" speedRelative="0.97" departed="0" arrived="0" entered="2" left="2" laneChangedFrom="0" laneChangedTo="0"/>
        </edge>
        <edge id="E21">
            <lane id="E21_0" sampledSeconds="0.00" departed="0" arrived="0" entered="0" left="0" laneChangedFrom="0" laneChangedTo="0"/>
            <lane id="E21_1" sampledSeconds="11.15" traveltime="10.41" overlapTraveltime="11.15" density="2.19" laneDensity="2.19" occupancy="1.02" waitingTime="0.00" timeLoss="0.89" speed="8.07" speedRelative="0.97" departed="0" arrived="0" entered="1" left="1" laneChangedFrom="0" laneChangedTo="0"/>
            <lane id="E21_2" sampledSeconds="2.77" traveltime="10.77" overlapTraveltime="11.40" density="0.54" laneDensity="0.54" occupancy="0.24" waitingTime="0.00" timeLoss="0.22" speed="7.89" speedRelative="0.95" departed="0" arrived="0" entered="1" left="0" laneChangedFrom="0" laneChangedTo="0"/>
        </edge>
        <edge id="E22">
            <lane id="E22_0" sampledSeconds="0.00" departed="0" arrived="0" entered="0" left="0" laneChangedFrom="0" laneChangedTo="0"/>
            <lane id="E22_1" sampledSeconds="2.00" traveltime="30.11" overlapTraveltime="31.86" density="0.39" laneDensity="0.39" occupancy="0.19" waitingTime="0.00" timeLoss="1.31" speed="2.85" speedRelative="0.34" departed="1" arrived="0" entered="0" left="0" laneChangedFrom="1" laneChangedTo="0"/>
            <lane id="E22_2" sampledSeconds="22.00" traveltime="11.85" overlapTraveltime="12.68" density="4.28" laneDensity="4.28" occupancy="2.07" waitingTime="0.00" timeLoss="2.40" speed="7.16" speedRelative="0.86" departed="0" arrived="0" entered="1" left="1" laneChangedFrom="0" laneChangedTo="1"/>
        </edge>
        <edge id="E26">
            <lane id="E26_0" sampledSeconds="0.00" departed="0" arrived="0" entered="0" left="0" laneChangedFrom="0" laneChangedTo="0"/>
            <lane id="E26_1" sampledSeconds="44.70" traveltime="13.11" overlapTraveltime="13.94" density="8.75" laneDensity="8.75" occupancy="4.17" waitingTime="0.00" timeLoss="6.05" speed="6.47" speedRelative="0.78" departed="2" arrived="0" entered="3" left="2" laneChangedFrom="1" laneChangedTo="0"/>
            <lane id="E26_2" sampledSeconds="10.43" traveltime="11.14" overlapTraveltime="11.76" density="2.04" laneDensity="2.04" occupancy="0.99" waitingTime="0.00" timeLoss="1.25" speed="7.67" speedRelative="0.92" departed="0" arrived="0" entered="0" left="1" laneChangedFrom="0" laneChangedTo="1"/>
        </edge>
        <edge id="E30">
            <lane id="E30_0" sampledSeconds="0.00" departed="0" arrived="0" entered="0" left="0" laneChangedFrom="0" laneChangedTo="0"/>
            <lane id="E30_1" sampledSeconds="7.15" traveltime="9.32" overlapTraveltime="9.97" density="1.66" laneDensity="1.66" occupancy="0.79" waitingTime="0.00" timeLoss="0.67" speed="7.69" speedRelative="0.92" departed="0" arrived="0" entered="1" left="0" laneChangedFrom="0" laneChangedTo="0"/>
            <lane id="E30_2" sampledSeconds="0.00" departed="0" arrived="0" entered="0" left="0" laneChangedFrom="0" laneChangedTo="0"/>
        </edge>
        <edge id="E31">
            <lane id="E31_0" sampledSeconds="0.00" departed="0" arrived="0" entered="0" left="0" laneChangedFrom="0" laneChangedTo="0"/>
            <lane id="E31_1" sampledSeconds="96.06" traveltime="39.55" overlapTraveltime="41.12" density="31.47" laneDensity="31.47" occupancy="15.49" waitingTime="68.00" timeLoss="79.15" speed="1.36" speedRelative="0.16" departed="2" arrived="0" entered="1" left="2" laneChangedFrom="1" laneChangedTo="0"/>
            <lane id="E31_2" sampledSeconds="21.24" traveltime="45.90" overlapTraveltime="44.11" density="6.96" laneDensity="6.96" occupancy="3.38" waitingTime="13.00" timeLoss="17.61" speed="1.27" speedRelative="0.15" departed="0" arrived="0" entered="0" left="1" laneChangedFrom="0" laneChangedTo="1"/>
        </edge>
        <edge id="E39">
            <lane id="E39_0" sampledSeconds="0.00" departed="0" arrived="0" entered="0" left="0" laneChangedFrom="0" laneChangedTo="0"/>
            <lane id="E39_1" sampledSeconds="26.11" traveltime="14.48" overlapTraveltime="15.21" density="4.48" laneDensity="4.48" occupancy="2.15" waitingTime="0.00" timeLoss="2.17" speed="6.72" speedRelative="0.81" departed="0" arrived="1" entered="2" left="0" laneChangedFrom="0" laneChangedTo="0"/>
        </edge>
        <edge id="E40">
            <lane id="E40_0" sampledSeconds="0.00" departed="0" arrived="0" entered="0" left="0" laneChangedFrom="0" laneChangedTo="0"/>
            <lane id="E40_1" sampledSeconds="53.84" traveltime="26.99" overlapTraveltime="27.72" density="5.24" laneDensity="5.24" occupancy="2.58" waitingTime="0.00" timeLoss="11.73" speed="6.36" speedRelative="0.76" departed="2" arrived="0" entered="0" left="2" laneChangedFrom="0" laneChangedTo="0"/>
        </edge>
        <edge id="E66">
            <lane id="E66_0" sampledSeconds="0.00" departed="0" arrived="0" entered="0" left="0" laneChangedFrom="0" laneChangedTo="0"/>
            <lane id="E66_1" sampledSeconds="0.00" departed="0" arrived="0" entered="0" left="0" laneChangedFrom="0" laneChangedTo="0"/>
            <lane id="E66_2" sampledSeconds="0.00" departed="0" arrived="0" entered="0" left="0" laneChangedFrom="0" laneChangedTo="0"/>
        </edge>
        <edge id="E7">
            <lane id="E7_0" sampledSeconds="0.00" departed="0" arrived="0" entered="0" left="0" laneChangedFrom="0" laneChangedTo="0"/>
            <lane id="E7_1" sampledSeconds="37.74" traveltime="18.41" overlapTraveltime="19.00" density="4.15" laneDensity="4.15" occupancy="2.02" waitingTime="0.00" timeLoss="2.62" speed="8.25" speedRelative="0.99" departed="0" arrived="2" entered="2" left="0" laneChangedFrom="0" laneChangedTo="0"/>
        </edge>
        <edge id="E8">
            <lane id="E8_0" sampledSeconds="0.00" departed="0" arrived="0" entered="0" left="0" laneChangedFrom="0" laneChangedTo="0"/>
            <lane id="E8_1" sampledSeconds="76.02" traveltime="18.68" overlapTraveltime="19.36" density="9.46" laneDensity="9.46" occupancy="4.60" waitingTime="0.00" timeLoss="9.30" speed="7.18" speedRelative="0.86" departed="2" arrived="2" entered="2" left="2" laneChangedFrom="0" laneChangedTo="0"/>
            <lane id="E8_2" sampledSeconds="11.64" traveltime="15.72" overlapTraveltime="16.30" density="1.45" laneDensity="1.45" occupancy="0.70" waitingTime="0.00" timeLoss="1.36" speed="8.52" speedRelative="1.02" departed="0" arrived="0" entered="1" left="0" laneChangedFrom="0" laneChangedTo="0"/>
        </edge>
    </interval>
    <interval begin="61260.00" end="61320.00" id="ld1">
        <edge id="-1136034180#1">
            <lane id="-1136034180#1_0" sampledSeconds="0.00" departed="0" arrived="0" entered="0" left="0" laneChangedFrom="0" laneChangedTo="0"/>
            <lane id="-1136034180#1_1" sampledSeconds="47.38" traveltime="20.41" overlapTraveltime="21.15" density="7.07" laneDensity="7.07" occupancy="3.51" waitingTime="6.00" timeLoss="16.39" speed="5.52" speedRelative="0.66" departed="2" arrived="0" entered="0" left="1" laneChangedFrom="0" laneChangedTo="0"/>
        </edge>
        <edge id="-131333251#1">
            <lane id="-131333251#1_0" sampledSeconds="0.00" departed="0" arrived="0" entered="0" left="0" laneChangedFrom="0" laneChangedTo="0"/>
            <lane id="-131333251#1_1" sampledSeconds="22.00" traveltime="21.82" overlapTraveltime="22.75" density="2.46" laneDensity="2.46" occupancy="1.20" waitingTime="0.00" timeLoss="3.43" speed="6.77" speedRelative="0.81" departed="1" arrived="0" entered="0" left="1" laneChangedFrom="0" laneChangedTo="0"/>
        </edge>
        <edge id="-155605284#1">
            <lane id="-155605284#1_0" sampledSeconds="0.00" departed="0" arrived="0" entered="0" left="0" laneChangedFrom="0" laneChangedTo="0"/>
            <lane id="-155605284#1_1" sampledSeconds="26.73" traveltime="16.97" overlapTraveltime="17.83" density="3.63" laneDensity="3.63" occupancy="1.77" waitingTime="0.00" timeLoss="3.44" speed="7.17" speedRelative="0.86" departed="1" arrived="0" entered="0" left="2" laneChangedFrom="0" laneChangedTo="0"/>
        </edge>
        <edge id="-68135997#1">
            <lane id="-68135997#1_0" sampledSeconds="0.00" departed="0" arrived="0" entered="0" left="0" laneChangedFrom="0" laneChangedTo="0"/>
            <lane id="-68135997#1_1" sampledSeconds="0.00" departed="0" arrived="0" entered="0" left="0" laneChangedFrom="0" laneChangedTo="0"/>
        </edge>
        <edge id="-776093907#2">
            <lane id="-776093907#2_0" sampledSeconds="0.00" departed="0" arrived="0" entered="0" left="0" laneChangedFrom="0" laneChangedTo="0"/>
            <lane id="-776093907#2_1" sampledSeconds="0.00" departed="0" arrived="0" entered="0" left="0" laneChangedFrom="0" laneChangedTo="0"/>
        </edge>
        <edge id="-816324771#2">
            <lane id="-816324771#2_0" sampledSeconds="0.00" departed="0" arrived="0" entered="0" left="0" laneChangedFrom="0" laneChangedTo="0"/>
            <lane id="-816324771#2_1" sampledSeconds="90.49" traveltime="22.62" overlapTraveltime="23.26" density="8.86" laneDensity="8.86" occupancy="4.42" waitingTime="0.00" timeLoss="14.36" speed="7.53" speedRelative="0.90" departed="4" arrived="0" entered="0" left="1" laneChangedFrom="0" laneChangedTo="0"/>
        </edge>
        <edge id="-E0">
            <lane id="-E0_0" sampledSeconds="0.00" departed="0" arrived="0" entered="0" left="0" laneChangedFrom="0" laneChangedTo="0"/>
            <lane id="-E0_1" sampledSeconds="13.36" traveltime="6.42" overlapTraveltime="6.82" density="2.89" laneDensity="2.89" occupancy="1.35" waitingTime="0.00" timeLoss="1.77" speed="12.04" speedRelative="0.87" departed="0" arrived="2" entered="2" left="0" laneChangedFrom="0" laneChangedTo="0"/>
        </edge>
        <edge id="-E17">
            <lane id="-E17_0" sampledSeconds="0.00" departed="0" arrived="0" entered="0" left="0" laneChangedFrom="0" laneChangedTo="0"/>
            <lane id="-E17_1" sampledSeconds="0.00" departed="0" arrived="0" entered="0" left="0" laneChangedFrom="0" laneChangedTo="0"/>
        </edge>
        <edge id="-E39">
            <lane id="-E39_0" sampledSeconds="0.00" departed="0" arrived="0" entered="0" left="0" laneChangedFrom="0" laneChangedTo="0"/>
            <lane id="-E39_1" sampledSeconds="30.38" traveltime="15.07" overlapTraveltime="15.99" density="5.21" laneDensity="5.21" occupancy="2.53" waitingTime="0.00" timeLoss="7.21" speed="6.39" speedRelative="0.77" departed="2" arrived="0" entered="0" left="2" laneChangedFrom="0" laneChangedTo="0"/>
        </edge>
        <edge id="-E40">
            <lane id="-E40_0" sampledSeconds="0.00" departed="0" arrived="0" entered="0" left="0" laneChangedFrom="0" laneChangedTo="0"/>
            <lane id="-E40_1" sampledSeconds="27.16" traveltime="26.86" overlapTraveltime="27.63" density="2.64" laneDensity="2.64" occupancy="1.30" waitingTime="0.00" timeLoss="2.45" speed="6.38" speedRelative="0.77" departed="0" arrived="1" entered="1" left="0" laneChangedFrom="0" laneChangedTo="0"/>
        </edge>
        <edge id="-E7">
            <lane id="-E7_0" sampledSeconds="0.00" departed="0" arrived="0" entered="0" left="0" laneChangedFrom="0" laneChangedTo="0"/>
            <lane id="-E7_1" sampledSeconds="24.00" traveltime="25.01" overlapTraveltime="25.83" density="2.64" laneDensity="2.64" occupancy="1.32" waitingTime="7.00" timeLoss="13.52" speed="6.07" speedRelative="0.44" departed="1" arrived="0" entered="0" left="0" laneChangedFrom="0" laneChangedTo="0"/>
        </edge>
        <edge id="1136034180#1">
            <lane id="1136034180#1_0" sampledSeconds="0.00" departed="0" arrived="0" entered="0" left="0" laneChangedFrom="0" laneChangedTo="0"/>
            <lane id="1136034180#1_1" sampledSeconds="29.88" traveltime="14.37" overlapTraveltime="15.04" density="4.46" laneDensity="4.46" occupancy="2.15" waitingTime="0.00" timeLoss="2.34" speed="7.76" speedRelative="0.93" departed="0" arrived="2" entered="2" left="0" laneChangedFrom="0" laneChangedTo="0"/>
        </edge>
        <edge id="131333251#1">
            <lane id="131333251#1_0" sampledSeconds="0.00" departed="0" arrived="0" entered="0" left="0" laneChangedFrom="0" laneChangedTo="0"/>
            <lane id="131333251#1_1" sampledSeconds="19.99" traveltime="20.69" overlapTraveltime="21.36" density="2.24" laneDensity="2.24" occupancy="1.10" waitingTime="0.00" timeLoss="1.58" speed="7.20" speedRelative="0.86" departed="0" arrived="1" entered="0" left="0" laneChangedFrom="0" laneChangedTo="0"/>
        </edge>
        <edge id="155605284#1">
            <lane id="155605284#1_0" sampledSeconds="0.00" departed="0" arrived="0" entered="0" left="0" laneChangedFrom="0" laneChangedTo="0"/>
            <lane id="155605284#1_1" sampledSeconds="13.97" traveltime="13.94" overlapTraveltime="14.50" density="1.86" laneDensity="1.86" occupancy="0.91" waitingTime="0.00" timeLoss="1.00" speed="8.96" speedRelative="1.08" departed="0" arrived="1" entered="1" left="0" laneChangedFrom="0" laneChangedTo="0"/>
        </edge>
        <edge id="155605343#3">
            <lane id="155605343#3_0" sampledSeconds="0.00" departed="0" arrived="0" entered="0" left="0" laneChangedFrom="0" laneChangedTo="0"/>
            <lane id="155605343#3_1" sampledSeconds="92.36" traveltime="45.80" overlapTraveltime="46.90" density="5.96" laneDensity="5.96" occupancy="2.95" waitingTime="11.00" timeLoss="22.06" speed="5.61" speedRelative="0.67" departed="0" arrived="0" entered="0" left="2" laneChangedFrom="1" laneChangedTo="0"/>
            <lane id="155605343#3_2" sampledSeconds="6.37" traveltime="110.85" overlapTraveltime="104.75" density="0.41" laneDensity="0.41" occupancy="0.18" waitingTime="2.00" timeLoss="4.20" speed="2.51" speedRelative="0.30" departed="0" arrived="0" entered="0" left="1" laneChangedFrom="0" laneChangedTo="1"/>
        </edge>
        <edge id="68135997#1">
            <lane id="68135997#1_0" sampledSeconds="0.00" departed="0" arrived="0" entered="0" left="0" laneChangedFrom="0" laneChangedTo="0"/>
            <lane id="68135997#1_1" sampledSeconds="0.00" departed="0" arrived="0" entered="0" left="0" laneChangedFrom="0" laneChangedTo="0"/>
        </edge>
        <edge id="776093907#2">
            <lane id="776093907#2_0" sampledSeconds="0.00" departed="0" arrived="0" entered="0" left="0" laneChangedFrom="0" laneChangedTo="0"/>
            <lane id="776093907#2_1" sampledSeconds="0.00" departed="0" arrived="0" entered="0" left="0" laneChangedFrom="0" laneChangedTo="0"/>
        </edge>
        <edge id="816324771#2">
            <lane id="816324771#2_0" sampledSeconds="0.00" departed="0" arrived="0" entered="0" left="0" laneChangedFrom="0" laneChangedTo="0"/>
            <lane id="816324771#2_1" sampledSeconds="58.72" traveltime="20.77" overlapTraveltime="21.38" density="5.75" laneDensity="5.75" occupancy="2.83" waitingTime="0.00" timeLoss="4.79" speed="8.19" speedRelative="0.98" departed="0" arrived="3" entered="2" left="0" laneChangedFrom="0" laneChangedTo="0"/>
        </edge>
        <edge id="E0">
            <lane id="E0_0" sampledSeconds="0.00" departed="0" arrived="0" entered="0" left="0" laneChangedFrom="0" laneChangedTo="0"/>
            <lane id="E0_1" sampledSeconds="45.00" traveltime="25.79" overlapTraveltime="27.47" density="9.72" laneDensity="9.72" occupancy="4.86" waitingTime="19.00" timeLoss="29.10" speed="2.99" speedRelative="0.36" departed="2" arrived="0" entered="0" left="0" laneChangedFrom="0" laneChangedTo="0"/>
        </edge>
        <edge id="E12">
            <lane id="E12_0" sampledSeconds="0.00" departed="0" arrived="0" entered="0" left="0" laneChangedFrom="0" laneChangedTo="0"/>
            <lane id="E12_1" sampledSeconds="152.60" traveltime="31.07" overlapTraveltime="32.29" density="15.23" laneDensity="15.23" occupancy="9.60" waitingTime="36.00" timeLoss="58.74" speed="5.37" speedRelative="0.64" departed="8" arrived="0" entered="0" left="2" laneChangedFrom="2" laneChangedTo="0"/>
            <lane id="E12_2" sampledSeconds="16.08" traveltime="22.99" overlapTraveltime="24.95" density="1.60" laneDensity="1.60" occupancy="1.10" waitingTime="0.00" timeLoss="4.25" speed="7.00" speedRelative="0.84" departed="0" arrived="0" entered="0" left="1" laneChangedFrom="0" laneChangedTo="2"/>
        </edge>
        <edge id="E13">
            <lane id="E13_0" sampledSeconds="0.00" departed="0" arrived="0" entered="0" left="0" laneChangedFrom="0" laneChangedTo="0"/>
            <lane id="E13_1" sampledSeconds="11.50" traveltime="7.84" overlapTraveltime="8.57" density="3.16" laneDensity="3.16" occupancy="1.44" waitingTime="0.00" timeLoss="0.83" speed="7.66" speedRelative="0.92" departed="0" arrived="0" entered="2" left="1" laneChangedFrom="0" laneChangedTo="0"/>