<?xml version="1.0" encoding="UTF-8"?>

<!-- generated on 2025-08-17 16:26:09 by Eclipse SUMO GUI Version 1.23.1
<sumoConfiguration xmlns:xsi="http://www.w3.org/2001/XMLSchema-instance" xsi:noNamespaceSchemaLocation="http://sumo.dlr.de/xsd/sumoConfiguration.xsd">

    <input>
        <net-file value="C:\Users\izdee\Desktop\BachelorArb\Berlin\gruppe2-main\Project_Dateien\Original\berlin_original.net.xml"/>
        <route-files value="C:\Users\izdee\Desktop\BachelorArb\Berlin\gruppe2-main\Project_Dateien\Original\berlin_original.rou.xml"/>
        <additional-files value="C:\Users\izdee\Desktop\BachelorArb\Berlin\gruppe2-main\Project_Dateien\Original\berlin_original.add.xml,C:\Users\izdee\Desktop\BachelorArb\Berlin\gruppe2-main\Project_Dateien\Original\meandata.add.xml"/>
    </input>

    <output>
        <fcd-output value="C:\Users\izdee\Desktop\BachelorArb\Berlin\gruppe2-main\Project_Dateien\Original\outputt/azoz_output_BaseLine/fcd_emergency.xml"/>
        <queue-output value="C:\Users\izdee\Desktop\BachelorArb\Berlin\gruppe2-main\Project_Dateien\Original\outputt/azoz_output_BaseLine/queue_emergency.xml"/>
        <summary-output value="C:\Users\izdee\Desktop\BachelorArb\Berlin\gruppe2-main\Project_Dateien\Original\outputt/azoz_output_BaseLine/summary.xml"/>
        <tripinfo-output value="C:\Users\izdee\Desktop\BachelorArb\Berlin\gruppe2-main\Project_Dateien\Original\outputt/azoz_output_BaseLine/tripinfo_emergency.xml"/>
        <stop-output value="C:\Users\izdee\Desktop\BachelorArb\Berlin\gruppe2-main\Project_Dateien\Original\outputt/azoz_output_BaseLine/stopinfo.xml"/>
        <edgedata-output value="C:\Users\izdee\Desktop\BachelorArb\Berlin\gruppe2-main\Project_Dateien\Original\outputt/azoz_output_BaseLine/edgedata.xml"/>
        <statistic-output value="C:\Users\izdee\Desktop\BachelorArb\Berlin\gruppe2-main\Project_Dateien\Original\outputt/azoz_output_BaseLine/statistics.xml"/>
    </output>

    <time>
        <begin value="57600"/>
        <end value="61200"/>
    </time>

    <report>
        <duration-log.statistics value="true"/>
    </report>

</sumoConfiguration>
-->

<queue-export xmlns:xsi="http://www.w3.org/2001/XMLSchema-instance" xsi:noNamespaceSchemaLocation="http://sumo.dlr.de/xsd/queue_file.xsd">
    <data timestep="57600.00">
        <lanes/>
    </data>
    <data timestep="57601.00">
        <lanes/>
    </data>
    <data timestep="57602.00">
        <lanes/>
    </data>
    <data timestep="57603.00">
        <lanes/>
    </data>
    <data timestep="57604.00">
        <lanes/>
    </data>
    <data timestep="57605.00">
        <lanes/>
    </data>
    <data timestep="57606.00">
        <lanes/>
    </data>
    <data timestep="57607.00">
        <lanes/>
    </data>
    <data timestep="57608.00">
        <lanes/>
    </data>
    <data timestep="57609.00">
        <lanes>
            <lane id="E31_1" queueing_time="0.00" queueing_length="0.00" queueing_length_experimental="6.17"/>
        </lanes>
    </data>
    <data timestep="57610.00">
        <lanes>
            <lane id="E31_1" queueing_time="0.00" queueing_length="0.00" queueing_length_experimental="6.02"/>
        </lanes>
    </data>
    <data timestep="57611.00">
        <lanes>
            <lane id="E31_1" queueing_time="1.00" queueing_length="6.01" queueing_length_experimental="13.64"/>
        </lanes>
    </data>
    <data timestep="57612.00">
        <lanes>
            <lane id="E31_1" queueing_time="2.00" queueing_length="13.57" queueing_length_experimental="13.57"/>
        </lanes>
    </data>
    <data timestep="57613.00">
        <lanes>
            <lane id="E0_1" queueing_time="1.00" queueing_length="6.01" queueing_length_experimental="6.01"/>
            <lane id="E31_1" queueing_time="3.00" queueing_length="13.50" queueing_length_experimental="13.50"/>
        </lanes>
    </data>
    <data timestep="57614.00">
        <lanes>
            <lane id="E0_1" queueing_time="2.00" queueing_length="6.00" queueing_length_experimental="6.00"/>
            <lane id="E31_1" queueing_time="4.00" queueing_length="13.50" queueing_length_experimental="13.50"/>
        </lanes>
    </data>
    <data timestep="57615.00">
        <lanes>
            <lane id="E0_1" queueing_time="3.00" queueing_length="6.00" queueing_length_experimental="6.00"/>
            <lane id="E31_1" queueing_time="5.00" queueing_length="13.50" queueing_length_experimental="13.50"/>
        </lanes>
    </data>
    <data timestep="57616.00">
        <lanes>
            <lane id="E0_1" queueing_time="4.00" queueing_length="6.00" queueing_length_experimental="13.85"/>
            <lane id="E31_1" queueing_time="6.00" queueing_length="13.50" queueing_length_experimental="13.50"/>
        </lanes>
    </data>
    <data timestep="57617.00">
        <lanes>
            <lane id="-776093907#2_1" queueing_time="0.00" queueing_length="0.00" queueing_length_experimental="6.12"/>
            <lane id="-E7_1" queueing_time="0.00" queueing_length="0.00" queueing_length_experimental="6.18"/>
            <lane id="E0_1" queueing_time="5.00" queueing_length="6.00" queueing_length_experimental="13.53"/>
            <lane id="E31_1" queueing_time="7.00" queueing_length="13.50" queueing_length_experimental="13.50"/>
        </lanes>
    </data>
    <data timestep="57618.00">
        <lanes>
            <lane id="-1136034180#1_1" queueing_time="0.00" queueing_length="0.00" queueing_length_experimental="6.03"/>
            <lane id="-776093907#2_1" queueing_time="1.00" queueing_length="6.03" queueing_length_experimental="6.03"/>
            <lane id="-E7_1" queueing_time="0.00" queueing_length="0.00" queueing_length_experimental="6.07"/>
            <lane id="E0_1" queueing_time="6.00" queueing_length="13.52" queueing_length_experimental="13.52"/>
            <lane id="E31_1" queueing_time="8.00" queueing_length="13.50" queueing_length_experimental="13.50"/>
        </lanes>
    </data>
    <data timestep="57619.00">
        <lanes>
            <lane id="-1136034180#1_1" queueing_time="1.00" queueing_length="6.01" queueing_length_experimental="13.82"/>
            <lane id="-776093907#2_1" queueing_time="2.00" queueing_length="6.01" queueing_length_experimental="6.01"/>
            <lane id="-E7_1" queueing_time="1.00" queueing_length="6.02" queueing_length_experimental="6.02"/>
            <lane id="E0_1" queueing_time="7.00" queueing_length="13.50" queueing_length_experimental="13.50"/>
            <lane id="E31_1" queueing_time="9.00" queueing_length="13.50" queueing_length_experimental="13.50"/>
        </lanes>
    </data>
    <data timestep="57620.00">
        <lanes>
            <lane id="-1136034180#1_1" queueing_time="2.00" queueing_length="6.00" queueing_length_experimental="13.52"/>
            <lane id="-776093907#2_1" queueing_time="3.00" queueing_length="6.00" queueing_length_experimental="6.00"/>
            <lane id="-E7_1" queueing_time="2.00" queueing_length="6.00" queueing_length_experimental="6.00"/>
            <lane id="E0_1" queueing_time="8.00" queueing_length="13.50" queueing_length_experimental="13.50"/>
            <lane id="E31_1" queueing_time="10.00" queueing_length="13.50" queueing_length_experimental="13.50"/>
        </lanes>
    </data>
    <data timestep="57621.00">
        <lanes>
            <lane id="-1136034180#1_1" queueing_time="3.00" queueing_length="13.50" queueing_length_experimental="13.50"/>
            <lane id="-776093907#2_1" queueing_time="4.00" queueing_length="6.00" queueing_length_experimental="13.54"/>
            <lane id="-E7_1" queueing_time="3.00" queueing_length="6.00" queueing_length_experimental="6.00"/>
            <lane id="68135997#1_1" queueing_time="0.00" queueing_length="0.00" queueing_length_experimental="6.00"/>
            <lane id="E0_1" queueing_time="9.00" queueing_length="13.50" queueing_length_experimental="13.50"/>
            <lane id="E31_1" queueing_time="11.00" queueing_length="13.50" queueing_length_experimental="13.50"/>
        </lanes>
    </data>
    <data timestep="57622.00">
        <lanes>
            <lane id="-1136034180#1_1" queueing_time="4.00" queueing_length="13.50" queueing_length_experimental="13.50"/>
            <lane id="-776093907#2_1" queueing_time="5.00" queueing_length="13.50" queueing_length_experimental="21.18"/>
            <lane id="-E7_1" queueing_time="4.00" queueing_length="6.00" queueing_length_experimental="6.00"/>
            <lane id="68135997#1_1" queueing_time="1.00" queueing_length="6.00" queueing_length_experimental="6.00"/>
            <lane id="E0_1" queueing_time="10.00" queueing_length="13.50" queueing_length_experimental="13.50"/>
            <lane id="E31_1" queueing_time="12.00" queueing_length="13.50" queueing_length_experimental="13.50"/>
        </lanes>
    </data>
    <data timestep="57623.00">
        <lanes>
            <lane id="-1136034180#1_1" queueing_time="5.00" queueing_length="13.50" queueing_length_experimental="13.50"/>
            <lane id="-776093907#2_1" queueing_time="6.00" queueing_length="13.50" queueing_length_experimental="21.04"/>
            <lane id="-816324771#2_1" queueing_time="0.00" queueing_length="0.00" queueing_length_experimental="6.69"/>
            <lane id="-E7_1" queueing_time="5.00" queueing_length="6.00" queueing_length_experimental="6.00"/>
            <lane id="68135997#1_1" queueing_time="2.00" queueing_length="6.00" queueing_length_experimental="6.00"/>
            <lane id="E0_1" queueing_time="11.00" queueing_length="13.50" queueing_length_experimental="13.50"/>
            <lane id="E31_1" queueing_time="13.00" queueing_length="13.50" queueing_length_experimental="13.50"/>
        </lanes>
    </data>
    <data timestep="57624.00">
        <lanes>
            <lane id="-1136034180#1_1" queueing_time="6.00" queueing_length="13.50" queueing_length_experimental="13.50"/>
            <lane id="-776093907#2_1" queueing_time="7.00" queueing_length="21.02" queueing_length_experimental="21.02"/>
            <lane id="-816324771#2_1" queueing_time="0.00" queueing_length="0.00" queueing_length_experimental="6.23"/>
            <lane id="-E7_1" queueing_time="6.00" queueing_length="6.00" queueing_length_experimental="6.00"/>
            <lane id="68135997#1_1" queueing_time="3.00" queueing_length="6.00" queueing_length_experimental="6.00"/>
            <lane id="E0_1" queueing_time="12.00" queueing_length="13.50" queueing_length_experimental="13.50"/>
            <lane id="E31_1" queueing_time="14.00" queueing_length="13.50" queueing_length_experimental="13.50"/>
        </lanes>
    </data>
    <data timestep="57625.00">
        <lanes>
            <lane id="-1136034180#1_1" queueing_time="7.00" queueing_length="13.50" queueing_length_experimental="13.50"/>
            <lane id="-776093907#2_1" queueing_time="8.00" queueing_length="21.01" queueing_length_experimental="21.01"/>
            <lane id="-816324771#2_1" queueing_time="0.00" queueing_length="0.00" queueing_length_experimental="6.11"/>
            <lane id="-E7_1" queueing_time="7.00" queueing_length="6.00" queueing_length_experimental="6.00"/>
            <lane id="68135997#1_1" queueing_time="4.00" queueing_length="6.00" queueing_length_experimental="13.55"/>
            <lane id="E0_1" queueing_time="13.00" queueing_length="13.50" queueing_length_experimental="13.50"/>
            <lane id="E31_1" queueing_time="15.00" queueing_length="13.50" queueing_length_experimental="13.50"/>
        </lanes>
    </data>
    <data timestep="57626.00">
        <lanes>
            <lane id="-1136034180#1_1" queueing_time="8.00" queueing_length="13.50" queueing_length_experimental="13.50"/>
            <lane id="-776093907#2_1" queueing_time="9.00" queueing_length="21.00" queueing_length_experimental="21.00"/>
            <lane id="-816324771#2_1" queueing_time="1.00" queueing_length="6.02" queueing_length_experimental="6.02"/>
            <lane id="-E7_1" queueing_time="8.00" queueing_length="6.00" queueing_length_experimental="6.00"/>
            <lane id="68135997#1_1" queueing_time="5.00" queueing_length="13.52" queueing_length_experimental="13.52"/>
            <lane id="E0_1" queueing_time="14.00" queueing_length="13.50" queueing_length_experimental="13.50"/>
            <lane id="E31_1" queueing_time="16.00" queueing_length="13.50" queueing_length_experimental="13.50"/>
        </lanes>
    </data>
    <data timestep="57627.00">
        <lanes>
            <lane id="-1136034180#1_1" queueing_time="9.00" queueing_length="13.50" queueing_length_experimental="13.50"/>
            <lane id="-776093907#2_1" queueing_time="10.00" queueing_length="21.00" queueing_length_experimental="21.00"/>
            <lane id="-816324771#2_1" queueing_time="2.00" queueing_length="6.01" queueing_length_experimental="6.01"/>
            <lane id="-E7_1" queueing_time="9.00" queueing_length="6.00" queueing_length_experimental="6.00"/>
            <lane id="68135997#1_1" queueing_time="6.00" queueing_length="13.51" queueing_length_experimental="13.51"/>
            <lane id="E0_1" queueing_time="15.00" queueing_length="13.50" queueing_length_experimental="13.50"/>
            <lane id="E31_1" queueing_time="17.00" queueing_length="13.50" queueing_length_experimental="13.50"/>
        </lanes>
    </data>
    <data timestep="57628.00">
        <lanes>
            <lane id="-1136034180#1_1" queueing_time="10.00" queueing_length="13.50" queueing_length_experimental="13.50"/>
            <lane id="-776093907#2_1" queueing_time="11.00" queueing_length="21.00" queueing_length_experimental="21.00"/>
            <lane id="-816324771#2_1" queueing_time="3.00" queueing_length="6.00" queueing_length_experimental="6.00"/>
            <lane id="-E7_1" queueing_time="10.00" queueing_length="6.00" queueing_length_experimental="6.00"/>
            <lane id="68135997#1_1" queueing_time="7.00" queueing_length="13.50" queueing_length_experimental="13.50"/>
            <lane id="E0_1" queueing_time="16.00" queueing_length="13.50" queueing_length_experimental="13.50"/>
            <lane id="E31_1" queueing_time="18.00" queueing_length="13.50" queueing_length_experimental="13.50"/>
        </lanes>
    </data>
    <data timestep="57629.00">
        <lanes>
            <lane id="-1136034180#1_1" queueing_time="11.00" queueing_length="13.50" queueing_length_experimental="13.50"/>
            <lane id="-776093907#2_1" queueing_time="12.00" queueing_length="21.00" queueing_length_experimental="21.00"/>
            <lane id="-816324771#2_1" queueing_time="4.00" queueing_length="6.00" queueing_length_experimental="13.67"/>
            <lane id="-E7_1" queueing_time="11.00" queueing_length="6.00" queueing_length_experimental="6.00"/>
            <lane id="68135997#1_1" queueing_time="8.00" queueing_length="13.50" queueing_length_experimental="13.50"/>
            <lane id="E0_1" queueing_time="17.00" queueing_length="13.50" queueing_length_experimental="13.50"/>
            <lane id="E31_1" queueing_time="19.00" queueing_length="13.50" queueing_length_experimental="13.50"/>
        </lanes>
    </data>
    <data timestep="57630.00">
        <lanes>
            <lane id="-1136034180#1_1" queueing_time="12.00" queueing_length="13.50" queueing_length_experimental="13.50"/>
            <lane id="-776093907#2_1" queueing_time="13.00" queueing_length="21.00" queueing_length_experimental="21.00"/>
            <lane id="-816324771#2_1" queueing_time="5.00" queueing_length="6.00" queueing_length_experimental="21.60"/>
            <lane id="-E7_1" queueing_time="12.00" queueing_length="6.00" queueing_length_experimental="6.00"/>
            <lane id="68135997#1_1" queueing_time="9.00" queueing_length="13.50" queueing_length_experimental="13.50"/>
            <lane id="E0_1" queueing_time="18.00" queueing_length="13.50" queueing_length_experimental="13.50"/>
            <lane id="E31_1" queueing_time="20.00" queueing_length="13.50" queueing_length_experimental="13.50"/>
            <lane id="E31_2" queueing_time="0.00" queueing_length="0.00" queueing_length_experimental="6.20"/>
        </lanes>
    </data>
    <data timestep="57631.00">
        <lanes>
            <lane id="-1136034180#1_1" queueing_time="13.00" queueing_length="13.50" queueing_length_experimental="13.50"/>
            <lane id="-776093907#2_1" queueing_time="14.00" queueing_length="21.00" queueing_length_experimental="21.00"/>
            <lane id="-816324771#2_1" queueing_time="6.00" queueing_length="13.52" queueing_length_experimental="29.83"/>
            <lane id="-E7_1" queueing_time="13.00" queueing_length="6.00" queueing_length_experimental="6.00"/>
            <lane id="68135997#1_1" queueing_time="10.00" queueing_length="13.50" queueing_length_experimental="13.50"/>
            <lane id="E0_1" queueing_time="19.00" queueing_length="13.50" queueing_length_experimental="13.50"/>
            <lane id="E31_1" queueing_time="21.00" queueing_length="13.50" queueing_length_experimental="13.50"/>
            <lane id="E31_2" queueing_time="0.00" queueing_length="0.00" queueing_length_experimental="6.05"/>
        </lanes>
    </data>
    <data timestep="57632.00">
        <lanes>
            <lane id="-1136034180#1_1" queueing_time="14.00" queueing_length="13.50" queueing_length_experimental="13.50"/>
            <lane id="-776093907#2_1" queueing_time="15.00" queueing_length="21.00" queueing_length_experimental="21.00"/>
            <lane id="-816324771#2_1" queueing_time="7.00" queueing_length="13.51" queueing_length_experimental="28.87"/>
            <lane id="-E7_1" queueing_time="14.00" queueing_length="6.00" queueing_length_experimental="6.00"/>
            <lane id="68135997#1_1" queueing_time="11.00" queueing_length="13.50" queueing_length_experimental="13.50"/>
            <lane id="E0_1" queueing_time="20.00" queueing_length="13.50" queueing_length_experimental="13.50"/>
            <lane id="E31_1" queueing_time="22.00" queueing_length="13.50" queueing_length_experimental="13.50"/>
            <lane id="E31_2" queueing_time="1.00" queueing_length="6.02" queueing_length_experimental="6.02"/>
        </lanes>
    </data>
    <data timestep="57633.00">
        <lanes>
            <lane id="-1136034180#1_1" queueing_time="15.00" queueing_length="13.50" queueing_length_experimental="13.50"/>
            <lane id="-776093907#2_1" queueing_time="16.00" queueing_length="21.00" queueing_length_experimental="21.00"/>
            <lane id="-816324771#2_1" queueing_time="8.00" queueing_length="21.01" queueing_length_experimental="28.64"/>
            <lane id="-E7_1" queueing_time="15.00" queueing_length="6.00" queueing_length_experimental="6.00"/>
            <lane id="68135997#1_1" queueing_time="12.00" queueing_length="13.50" queueing_length_experimental="13.50"/>
            <lane id="E0_1" queueing_time="21.00" queueing_length="13.50" queueing_length_experimental="13.50"/>
            <lane id="E31_1" queueing_time="23.00" queueing_length="13.50" queueing_length_experimental="13.50"/>
            <lane id="E31_2" queueing_time="2.00" queueing_length="6.01" queueing_length_experimental="6.01"/>
        </lanes>
    </data>
    <data timestep="57634.00">
        <lanes>
            <lane id="-1136034180#1_1" queueing_time="16.00" queueing_length="13.50" queueing_length_experimental="13.50"/>
            <lane id="-776093907#2_1" queueing_time="17.00" queueing_length="21.00" queueing_length_experimental="21.00"/>
            <lane id="-816324771#2_1" queueing_time="9.00" queueing_length="28.55" queueing_length_experimental="28.55"/>
            <lane id="-E7_1" queueing_time="16.00" queueing_length="6.00" queueing_length_experimental="6.00"/>
            <lane id="68135997#1_1" queueing_time="13.00" queueing_length="13.50" queueing_length_experimental="13.50"/>
            <lane id="E0_1" queueing_time="22.00" queueing_length="13.50" queueing_length_experimental="13.50"/>
            <lane id="E31_1" queueing_time="24.00" queueing_length="13.50" queueing_length_experimental="13.50"/>
            <lane id="E31_2" queueing_time="3.00" queueing_length="6.00" queueing_length_experimental="6.00"/>
        </lanes>
    </data>
    <data timestep="57635.00">
        <lanes>
            <lane id="-1136034180#1_1" queueing_time="17.00" queueing_length="13.50" queueing_length_experimental="13.50"/>
            <lane id="-776093907#2_1" queueing_time="18.00" queueing_length="21.00" queueing_length_experimental="21.00"/>
            <lane id="-816324771#2_1" queueing_time="10.00" queueing_length="28.51" queueing_length_experimental="28.51"/>
            <lane id="-E7_1" queueing_time="17.00" queueing_length="6.00" queueing_length_experimental="6.00"/>
            <lane id="68135997#1_1" queueing_time="14.00" queueing_length="13.50" queueing_length_experimental="13.50"/>
            <lane id="E0_1" queueing_time="23.00" queueing_length="13.50" queueing_length_experimental="13.50"/>
            <lane id="E31_1" queueing_time="25.00" queueing_length="13.50" queueing_length_experimental="13.50"/>
            <lane id="E31_2" queueing_time="4.00" queueing_length="6.00" queueing_length_experimental="6.00"/>
        </lanes>
    </data>
    <data timestep="57636.00">
        <lanes>
            <lane id="-1136034180#1_1" queueing_time="18.00" queueing_length="13.50" queueing_length_experimental="13.50"/>
            <lane id="-776093907#2_1" queueing_time="19.00" queueing_length="21.00" queueing_length_experimental="21.00"/>
            <lane id="-816324771#2_1" queueing_time="11.00" queueing_length="28.51" queueing_length_experimental="28.51"/>
            <lane id="-E7_1" queueing_time="18.00" queueing_length="6.00" queueing_length_experimental="6.00"/>
            <lane id="68135997#1_1" queueing_time="15.00" queueing_length="13.50" queueing_length_experimental="13.50"/>
            <lane id="E0_1" queueing_time="24.00" queueing_length="13.50" queueing_length_experimental="13.50"/>
            <lane id="E31_1" queueing_time="26.00" queueing_length="13.50" queueing_length_experimental="13.50"/>
            <lane id="E31_2" queueing_time="5.00" queueing_length="6.00" queueing_length_experimental="6.00"/>
        </lanes>
    </data>
    <data timestep="57637.00">
        <lanes>
            <lane id="-1136034180#1_1" queueing_time="19.00" queueing_length="13.50" queueing_length_experimental="13.50"/>
            <lane id="-776093907#2_1" queueing_time="20.00" queueing_length="21.00" queueing_length_experimental="21.00"/>
            <lane id="-816324771#2_1" queueing_time="12.00" queueing_length="28.51" queueing_length_experimental="28.51"/>
            <lane id="-E7_1" queueing_time="19.00" queueing_length="6.00" queueing_length_experimental="6.00"/>
            <lane id="68135997#1_1" queueing_time="16.00" queueing_length="13.50" queueing_length_experimental="13.50"/>
            <lane id="E0_1" queueing_time="25.00" queueing_length="13.50" queueing_length_experimental="13.50"/>
            <lane id="E31_1" queueing_time="27.00" queueing_length="13.50" queueing_length_experimental="13.50"/>
            <lane id="E31_2" queueing_time="6.00" queueing_length="6.00" queueing_length_experimental="6.00"/>
        </lanes>
    </data>
    <data timestep="57638.00">
        <lanes>
            <lane id="-1136034180#1_1" queueing_time="20.00" queueing_length="13.50" queueing_length_experimental="13.50"/>
            <lane id="-776093907#2_1" queueing_time="21.00" queueing_length="21.00" queueing_length_experimental="21.00"/>
            <lane id="-816324771#2_1" queueing_time="13.00" queueing_length="28.50" queueing_length_experimental="28.50"/>
            <lane id="-E7_1" queueing_time="20.00" queueing_length="6.00" queueing_length_experimental="6.00"/>
            <lane id="68135997#1_1" queueing_time="17.00" queueing_length="13.50" queueing_length_experimental="13.50"/>
            <lane id="E0_1" queueing_time="26.00" queueing_length="13.50" queueing_length_experimental="13.50"/>
            <lane id="E31_1" queueing_time="28.00" queueing_length="13.50" queueing_length_experimental="13.50"/>
            <lane id="E31_2" queueing_time="7.00" queueing_length="6.00" queueing_length_experimental="6.00"/>
        </lanes>
    </data>
    <data timestep="57639.00">
        <lanes>
            <lane id="-1136034180#1_1" queueing_time="21.00" queueing_length="13.50" queueing_length_experimental="13.50"/>
            <lane id="-776093907#2_1" queueing_time="22.00" queueing_length="21.00" queueing_length_experimental="21.00"/>
            <lane id="-816324771#2_1" queueing_time="14.00" queueing_length="28.50" queueing_length_experimental="28.50"/>
            <lane id="-E7_1" queueing_time="21.00" queueing_length="6.00" queueing_length_experimental="6.00"/>
            <lane id="68135997#1_1" queueing_time="18.00" queueing_length="13.50" queueing_length_experimental="13.50"/>
            <lane id="E0_1" queueing_time="27.00" queueing_length="13.50" queueing_length_experimental="13.50"/>
            <lane id="E31_1" queueing_time="29.00" queueing_length="13.50" queueing_length_experimental="13.50"/>
            <lane id="E31_2" queueing_time="8.00" queueing_length="6.00" queueing_length_experimental="6.00"/>
        </lanes>
    </data>
    <data timestep="57640.00">
        <lanes>
            <lane id="-1136034180#1_1" queueing_time="22.00" queueing_length="13.50" queueing_length_experimental="13.50"/>
            <lane id="-776093907#2_1" queueing_time="23.00" queueing_length="21.00" queueing_length_experimental="21.00"/>
            <lane id="-816324771#2_1" queueing_time="15.00" queueing_length="28.50" queueing_length_experimental="28.50"/>
            <lane id="-E7_1" queueing_time="22.00" queueing_length="6.00" queueing_length_experimental="6.00"/>
            <lane id="68135997#1_1" queueing_time="19.00" queueing_length="13.50" queueing_length_experimental="13.50"/>
            <lane id="E0_1" queueing_time="28.00" queueing_length="13.50" queueing_length_experimental="13.50"/>
            <lane id="E31_1" queueing_time="30.00" queueing_length="13.50" queueing_length_experimental="13.50"/>
            <lane id="E31_2" queueing_time="9.00" queueing_length="6.00" queueing_length_experimental="6.00"/>
        </lanes>
    </data>
    <data timestep="57641.00">
        <lanes>
            <lane id="-1136034180#1_1" queueing_time="23.00" queueing_length="13.50" queueing_length_experimental="13.50"/>
            <lane id="-776093907#2_1" queueing_time="24.00" queueing_length="21.00" queueing_length_experimental="21.00"/>
            <lane id="-816324771#2_1" queueing_time="16.00" queueing_length="28.50" queueing_length_experimental="28.50"/>
            <lane id="-E7_1" queueing_time="23.00" queueing_length="6.00" queueing_length_experimental="6.00"/>
            <lane id="68135997#1_1" queueing_time="20.00" queueing_length="13.50" queueing_length_experimental="13.50"/>
            <lane id="E0_1" queueing_time="29.00" queueing_length="13.50" queueing_length_experimental="13.50"/>
            <lane id="E31_1" queueing_time="31.00" queueing_length="13.50" queueing_length_experimental="13.50"/>
            <lane id="E31_2" queueing_time="10.00" queueing_length="6.00" queueing_length_experimental="6.00"/>
        </lanes>
    </data>
    <data timestep="57642.00">
        <lanes>
            <lane id="-1136034180#1_1" queueing_time="24.00" queueing_length="13.50" queueing_length_experimental="13.50"/>
            <lane id="-776093907#2_1" queueing_time="25.00" queueing_length="21.00" queueing_length_experimental="21.00"/>
            <lane id="-816324771#2_1" queueing_time="17.00" queueing_length="28.50" queueing_length_experimental="28.50"/>
            <lane id="-E7_1" queueing_time="24.00" queueing_length="6.00" queueing_length_experimental="6.00"/>
            <lane id="68135997#1_1" queueing_time="21.00" queueing_length="13.50" queueing_length_experimental="13.50"/>
            <lane id="E0_1" queueing_time="30.00" queueing_length="13.50" queueing_length_experimental="13.50"/>
            <lane id="E31_1" queueing_time="32.00" queueing_length="13.50" queueing_length_experimental="13.50"/>
            <lane id="E31_2" queueing_time="11.00" queueing_length="6.00" queueing_length_experimental="6.00"/>
        </lanes>
    </data>
    <data timestep="57643.00">
        <lanes>
            <lane id="-1136034180#1_1" queueing_time="25.00" queueing_length="13.50" queueing_length_experimental="13.50"/>
            <lane id="-776093907#2_1" queueing_time="26.00" queueing_length="21.00" queueing_length_experimental="21.00"/>
            <lane id="-816324771#2_1" queueing_time="18.00" queueing_length="28.50" queueing_length_experimental="28.50"/>
            <lane id="-E7_1" queueing_time="25.00" queueing_length="6.00" queueing_length_experimental="6.00"/>
            <lane id="68135997#1_1" queueing_time="22.00" queueing_length="13.50" queueing_length_experimental="13.50"/>
            <lane id="E0_1" queueing_time="31.00" queueing_length="13.50" queueing_length_experimental="13.50"/>
            <lane id="E12_1" queueing_time="0.00" queueing_length="0.00" queueing_length_experimental="6.14"/>
            <lane id="E31_1" queueing_time="33.00" queueing_length="13.50" queueing_length_experimental="13.50"/>
            <lane id="E31_2" queueing_time="12.00" queueing_length="6.00" queueing_length_experimental="6.00"/>
        </lanes>
    </data>
    <data timestep="57644.00">
        <lanes>
            <lane id="-1136034180#1_1" queueing_time="26.00" queueing_length="13.50" queueing_length_experimental="13.50"/>
            <lane id="-776093907#2_1" queueing_time="27.00" queueing_length="21.00" queueing_length_experimental="21.00"/>
            <lane id="-816324771#2_1" queueing_time="19.00" queueing_length="28.50" queueing_length_experimental="28.50"/>
            <lane id="-E7_1" queueing_time="26.00" queueing_length="6.00" queueing_length_experimental="6.00"/>