<?xml version="1.0" encoding="UTF-8"?>

<!-- generated on 2025-08-17 16:26:09 by Eclipse SUMO GUI Version 1.23.1
<sumoConfiguration xmlns:xsi="http://www.w3.org/2001/XMLSchema-instance" xsi:noNamespaceSchemaLocation="http://sumo.dlr.de/xsd/sumoConfiguration.xsd">

    <input>
        <net-file value="C:\Users\izdee\Desktop\BachelorArb\Berlin\gruppe2-main\Project_Dateien\Original\berlin_original.net.xml"/>
        <route-files value="C:\Users\izdee\Desktop\BachelorArb\Berlin\gruppe2-main\Project_Dateien\Original\berlin_original.rou.xml"/>
        <additional-files value="C:\Users\izdee\Desktop\BachelorArb\Berlin\gruppe2-main\Project_Dateien\Original\berlin_original.add.xml,C:\Users\izdee\Desktop\BachelorArb\Berlin\gruppe2-main\Project_Dateien\Original\meandata.add.xml"/>
    </input>

    <output>
        <fcd-output value="C:\Users\izdee\Desktop\BachelorArb\Berlin\gruppe2-main\Project_Dateien\Original\outputt/azoz_output_BaseLine/fcd_emergency.xml"/>
        <queue-output value="C:\Users\izdee\Desktop\BachelorArb\Berlin\gruppe2-main\Project_Dateien\Original\outputt/azoz_output_BaseLine/queue_emergency.xml"/>
        <summary-output value="C:\Users\izdee\Desktop\BachelorArb\Berlin\gruppe2-main\Project_Dateien\Original\outputt/azoz_output_BaseLine/summary.xml"/>
        <tripinfo-output value="C:\Users\izdee\Desktop\BachelorArb\Berlin\gruppe2-main\Project_Dateien\Original\outputt/azoz_output_BaseLine/tripinfo_emergency.xml"/>
        <stop-output value="C:\Users\izdee\Desktop\BachelorArb\Berlin\gruppe2-main\Project_Dateien\Original\outputt/azoz_output_BaseLine/stopinfo.xml"/>
        <edgedata-output value="C:\Users\izdee\Desktop\BachelorArb\Berlin\gruppe2-main\Project_Dateien\Original\outputt/azoz_output_BaseLine/edgedata.xml"/>
        <statistic-output value="C:\Users\izdee\Desktop\BachelorArb\Berlin\gruppe2-main\Project_Dateien\Original\outputt/azoz_output_BaseLine/statistics.xml"/>
    </output>

    <time>
        <begin value="57600"/>
        <end value="61200"/>
    </time>

    <report>
        <duration-log.statistics value="true"/>
    </report>

</sumoConfiguration>
-->

<tripinfos xmlns:xsi="http://www.w3.org/2001/XMLSchema-instance" xsi:noNamespaceSchemaLocation="http://sumo.dlr.de/xsd/tripinfo_file.xsd">
    <tripinfo id="f_20.0" depart="57600.00" departLane="E26_1" departPos="5.10" departSpeed="0.00" departDelay="0.00" arrival="57624.00" arrivalLane="-E0_1" arrivalPos="77.15" arrivalSpeed="11.16" duration="24.00" routeLength="166.91" waitingTime="0.00" waitingCount="0" stopTime="0.00" timeLoss="3.64" rerouteNo="0" devices="tripinfo_f_20.0 fcd_f_20.0" vType="t_0" speedFactor="0.83" vaporized=""/>
    <tripinfo id="f_21.0" depart="57603.00" departLane="E26_1" departPos="5.10" departSpeed="0.00" departDelay="3.00" arrival="57636.00" arrivalLane="E7_1" arrivalPos="151.73" arrivalSpeed="7.66" duration="33.00" routeLength="249.26" waitingTime="0.00" waitingCount="0" stopTime="0.00" timeLoss="3.81" rerouteNo="0" devices="tripinfo_f_21.0 fcd_f_21.0" vType="t_0" speedFactor="1.05" vaporized=""/>
    <tripinfo id="f_46.0" depart="57603.00" departLane="-E39_1" departPos="5.10" departSpeed="0.00" departDelay="3.00" arrival="57639.00" arrivalLane="E8_1" arrivalPos="133.91" arrivalSpeed="7.36" duration="36.00" routeLength="248.18" waitingTime="0.00" waitingCount="0" stopTime="0.00" timeLoss="4.48" rerouteNo="0" devices="tripinfo_f_46.0 fcd_f_46.0" vType="t_0" speedFactor="0.95" vaporized=""/>
    <tripinfo id="f_45.0" depart="57600.00" departLane="-E39_1" departPos="5.10" departSpeed="0.00" departDelay="0.00" arrival="57643.00" arrivalLane="-E40_1" arrivalPos="171.40" arrivalSpeed="6.41" duration="43.00" routeLength="286.10" waitingTime="0.00" waitingCount="0" stopTime="0.00" timeLoss="5.21" rerouteNo="0" devices="tripinfo_f_45.0 fcd_f_45.0" vType="t_0" speedFactor="0.92" vaporized=""/>
    <tripinfo id="f_44.0" depart="57600.00" departLane="E40_1" departPos="5.10" departSpeed="0.00" departDelay="0.00" arrival="57645.00" arrivalLane="E39_1" arrivalPos="97.21" arrivalSpeed="7.00" duration="45.00" routeLength="286.32" waitingTime="0.00" waitingCount="0" stopTime="0.00" timeLoss="5.02" rerouteNo="0" devices="tripinfo_f_44.0 fcd_f_44.0" vType="t_0" speedFactor="0.87" vaporized=""/>
    <tripinfo id="f_48.0" depart="57603.00" departLane="E40_1" departPos="5.10" departSpeed="0.00" departDelay="3.00" arrival="57646.00" arrivalLane="E8_1" arrivalPos="133.91" arrivalSpeed="8.60" duration="43.00" routeLength="310.97" waitingTime="0.00" waitingCount="0" stopTime="0.00" timeLoss="9.41" rerouteNo="0" devices="tripinfo_f_48.0 fcd_f_48.0" vType="t_0" speedFactor="1.13" vaporized=""/>
    <tripinfo id="f_35.0" depart="57600.00" departLane="E8_1" departPos="5.10" departSpeed="0.00" departDelay="0.00" arrival="57648.00" arrivalLane="816324771#2_1" arrivalPos="170.19" arrivalSpeed="7.44" duration="48.00" routeLength="326.01" waitingTime="0.00" waitingCount="0" stopTime="0.00" timeLoss="5.85" rerouteNo="0" devices="tripinfo_f_35.0 fcd_f_35.0" vType="t_0" speedFactor="0.94" vaporized=""/>
    <tripinfo id="f_0.0" depart="57600.00" departLane="E12_1" departPos="5.10" departSpeed="0.00" departDelay="0.00" arrival="57651.00" arrivalLane="-E17_1" arrivalPos="146.59" arrivalSpeed="7.79" duration="51.00" routeLength="395.17" waitingTime="0.00" waitingCount="0" stopTime="0.00" timeLoss="5.59" rerouteNo="0" devices="tripinfo_f_0.0 fcd_f_0.0" vType="t_0" speedFactor="1.06" vaporized=""/>
    <tripinfo id="f_18.0" depart="57600.00" departLane="-131333251#1_1" departPos="5.10" departSpeed="0.00" departDelay="0.00" arrival="57651.00" arrivalLane="E7_1" arrivalPos="151.73" arrivalSpeed="8.29" duration="51.00" routeLength="399.58" waitingTime="0.00" waitingCount="0" stopTime="0.00" timeLoss="5.67" rerouteNo="0" devices="tripinfo_f_18.0 fcd_f_18.0" vType="t_0" speedFactor="1.08" vaporized=""/>
    <tripinfo id="f_31.0" depart="57600.00" departLane="E22_1" departPos="5.10" departSpeed="0.00" departDelay="0.00" arrival="57651.00" arrivalLane="-1136034180#1_1" arrivalPos="111.75" arrivalSpeed="8.22" duration="51.00" routeLength="331.22" waitingTime="0.00" waitingCount="0" stopTime="0.00" timeLoss="9.30" rerouteNo="0" devices="tripinfo_f_31.0 fcd_f_31.0" vType="t_0" speedFactor="0.99" vaporized=""/>
    <tripinfo id="f_16.0" depart="57600.00" departLane="E17_1" departPos="5.10" departSpeed="0.00" departDelay="0.00" arrival="57659.00" arrivalLane="131333251#1_1" arrivalPos="148.76" arrivalSpeed="7.50" duration="59.00" routeLength="423.05" waitingTime="0.00" waitingCount="0" stopTime="0.00" timeLoss="7.49" rerouteNo="0" devices="tripinfo_f_16.0 fcd_f_16.0" vType="t_0" speedFactor="1.01" vaporized=""/>
    <tripinfo id="f_32.0" depart="57600.00" departLane="-1136034180#1_1" departPos="5.10" departSpeed="0.00" departDelay="0.00" arrival="57660.00" arrivalLane="E26_1" arrivalPos="85.18" arrivalSpeed="7.33" duration="60.00" routeLength="202.87" waitingTime="26.00" waitingCount="1" stopTime="0.00" timeLoss="32.55" rerouteNo="0" devices="tripinfo_f_32.0 fcd_f_32.0" vType="t_0" speedFactor="0.93" vaporized=""/>
    <tripinfo id="f_26.0" depart="57600.00" departLane="E0_1" departPos="5.10" departSpeed="0.00" departDelay="0.00" arrival="57661.00" arrivalLane="E22_2" arrivalPos="85.73" arrivalSpeed="6.61" duration="61.00" routeLength="175.27" waitingTime="32.00" waitingCount="1" stopTime="0.00" timeLoss="37.90" rerouteNo="0" devices="tripinfo_f_26.0 fcd_f_26.0" vType="t_0" speedFactor="0.94" vaporized=""/>
    <tripinfo id="f_39.0" depart="57606.00" departLane="-816324771#2_1" departPos="5.10" departSpeed="0.00" departDelay="6.00" arrival="57662.00" arrivalLane="E30_1" arrivalPos="71.66" arrivalSpeed="7.88" duration="56.00" routeLength="248.46" waitingTime="14.00" waitingCount="1" stopTime="0.00" timeLoss="26.11" rerouteNo="0" devices="tripinfo_f_39.0 fcd_f_39.0" vType="t_0" speedFactor="1.02" vaporized=""/>
    <tripinfo id="f_42.0" depart="57600.00" departLane="-155605284#1_1" departPos="5.10" departSpeed="0.00" departDelay="0.00" arrival="57663.00" arrivalLane="E39_1" arrivalPos="97.21" arrivalSpeed="6.40" duration="63.00" routeLength="291.54" waitingTime="13.00" waitingCount="1" stopTime="0.00" timeLoss="22.76" rerouteNo="0" devices="tripinfo_f_42.0 fcd_f_42.0" vType="t_0" speedFactor="0.89" vaporized=""/>
    <tripinfo id="f_42.1" depart="57629.00" departLane="-155605284#1_1" departPos="5.10" departSpeed="0.00" departDelay="0.20" arrival="57665.00" arrivalLane="E39_1" arrivalPos="97.21" arrivalSpeed="9.42" duration="36.00" routeLength="290.31" waitingTime="0.00" waitingCount="0" stopTime="0.00" timeLoss="5.36" rerouteNo="0" devices="tripinfo_f_42.1 fcd_f_42.1" vType="t_0" speedFactor="1.18" vaporized=""/>
    <tripinfo id="f_29.0" depart="57600.00" departLane="-816324771#2_1" departPos="5.10" departSpeed="0.00" departDelay="0.00" arrival="57669.00" arrivalLane="816324771#2_1" arrivalPos="170.19" arrivalSpeed="7.81" duration="69.00" routeLength="339.95" waitingTime="19.00" waitingCount="1" stopTime="0.00" timeLoss="28.39" rerouteNo="0" devices="tripinfo_f_29.0 fcd_f_29.0" vType="t_0" speedFactor="1.03" vaporized=""/>
    <tripinfo id="f_33.0" depart="57603.00" departLane="-816324771#2_1" departPos="5.10" departSpeed="0.00" departDelay="3.00" arrival="57670.00" arrivalLane="1136034180#1_1" arrivalPos="111.75" arrivalSpeed="6.16" duration="67.00" routeLength="306.86" waitingTime="15.00" waitingCount="1" stopTime="0.00" timeLoss="24.31" rerouteNo="0" devices="tripinfo_f_33.0 fcd_f_33.0" vType="t_0" speedFactor="0.88" vaporized=""/>
    <tripinfo id="f_25.0" depart="57603.00" departLane="68135997#1_1" departPos="5.10" departSpeed="0.00" departDelay="3.00" arrival="57670.00" arrivalLane="776093907#2_1" arrivalPos="126.38" arrivalSpeed="7.87" duration="67.00" routeLength="301.98" waitingTime="22.00" waitingCount="1" stopTime="0.00" timeLoss="29.64" rerouteNo="0" devices="tripinfo_f_25.0 fcd_f_25.0" vType="t_0" speedFactor="0.99" vaporized=""/>
    <tripinfo id="f_40.0" depart="57609.00" departLane="-816324771#2_1" departPos="5.10" departSpeed="0.00" departDelay="9.00" arrival="57673.00" arrivalLane="E26_1" arrivalPos="85.18" arrivalSpeed="8.12" duration="64.00" routeLength="278.73" waitingTime="15.00" waitingCount="2" stopTime="0.00" timeLoss="29.93" rerouteNo="0" devices="tripinfo_f_40.0 fcd_f_40.0" vType="t_0" speedFactor="1.01" vaporized=""/>
    <tripinfo id="f_41.0" depart="57603.00" departLane="-1136034180#1_1" departPos="5.10" departSpeed="0.00" departDelay="3.00" arrival="57676.00" arrivalLane="816324771#2_1" arrivalPos="170.19" arrivalSpeed="7.62" duration="73.00" routeLength="306.90" waitingTime="25.00" waitingCount="1" stopTime="0.00" timeLoss="34.53" rerouteNo="0" devices="tripinfo_f_41.0 fcd_f_41.0" vType="t_0" speedFactor="0.97" vaporized=""/>
    <tripinfo id="f_33.1" depart="57629.00" departLane="-816324771#2_1" departPos="5.10" departSpeed="0.00" departDelay="0.20" arrival="57678.00" arrivalLane="1136034180#1_1" arrivalPos="111.75" arrivalSpeed="8.28" duration="49.00" routeLength="306.86" waitingTime="0.00" waitingCount="0" stopTime="0.00" timeLoss="12.85" rerouteNo="0" devices="tripinfo_f_33.1 fcd_f_33.1" vType="t_0" speedFactor="1.02" vaporized=""/>
    <tripinfo id="f_1.0" depart="57603.00" departLane="E12_1" departPos="5.10" departSpeed="0.00" departDelay="3.00" arrival="57679.00" arrivalLane="131333251#1_1" arrivalPos="148.76" arrivalSpeed="7.47" duration="76.00" routeLength="523.25" waitingTime="0.00" waitingCount="0" stopTime="0.00" timeLoss="8.22" rerouteNo="0" devices="tripinfo_f_1.0 fcd_f_1.0" vType="t_0" speedFactor="0.94" vaporized=""/>
    <tripinfo id="f_17.0" depart="57603.00" departLane="-776093907#2_1" departPos="5.10" departSpeed="0.00" departDelay="3.00" arrival="57679.00" arrivalLane="-68135997#1_1" arrivalPos="158.09" arrivalSpeed="7.68" duration="76.00" routeLength="301.92" waitingTime="29.00" waitingCount="2" stopTime="0.00" timeLoss="39.61" rerouteNo="0" devices="tripinfo_f_17.0 fcd_f_17.0" vType="t_0" speedFactor="1.01" vaporized=""/>
    <tripinfo id="f_23.0" depart="57606.00" departLane="-776093907#2_1" departPos="5.10" departSpeed="0.00" departDelay="6.00" arrival="57679.00" arrivalLane="E66_1" arrivalPos="167.00" arrivalSpeed="9.02" duration="73.00" routeLength="300.63" waitingTime="28.00" waitingCount="2" stopTime="0.00" timeLoss="41.13" rerouteNo="0" devices="tripinfo_f_23.0 fcd_f_23.0" vType="t_0" speedFactor="1.17" vaporized=""/>
    <tripinfo id="f_43.0" depart="57603.00" departLane="E31_1" departPos="5.10" departSpeed="0.00" departDelay="3.00" arrival="57680.00" arrivalLane="-E40_1" arrivalPos="171.40" arrivalSpeed="5.73" duration="77.00" routeLength="242.87" waitingTime="34.00" waitingCount="1" stopTime="0.00" timeLoss="41.52" rerouteNo="0" devices="tripinfo_f_43.0 fcd_f_43.0" vType="t_0" speedFactor="0.83" vaporized=""/>
    <tripinfo id="f_41.1" depart="57636.00" departLane="-1136034180#1_1" departPos="5.10" departSpeed="0.00" departDelay="7.20" arrival="57680.00" arrivalLane="816324771#2_1" arrivalPos="170.19" arrivalSpeed="7.25" duration="44.00" routeLength="306.90" waitingTime="0.00" waitingCount="0" stopTime="0.00" timeLoss="5.67" rerouteNo="0" devices="tripinfo_f_41.1 fcd_f_41.1" vType="t_0" speedFactor="0.97" vaporized=""/>
    <tripinfo id="f_32.1" depart="57663.00" departLane="-1136034180#1_1" departPos="5.10" departSpeed="0.00" departDelay="0.93" arrival="57693.00" arrivalLane="E26_1" arrivalPos="85.18" arrivalSpeed="7.50" duration="30.00" routeLength="202.87" waitingTime="0.00" waitingCount="0" stopTime="0.00" timeLoss="4.97" rerouteNo="0" devices="tripinfo_f_32.1 fcd_f_32.1" vType="t_0" speedFactor="1.00" vaporized=""/>
    <tripinfo id="f_33.2" depart="57658.00" departLane="-816324771#2_1" departPos="5.10" departSpeed="0.00" departDelay="0.40" arrival="57696.00" arrivalLane="1136034180#1_1" arrivalPos="111.75" arrivalSpeed="8.26" duration="38.00" routeLength="306.86" waitingTime="0.00" waitingCount="0" stopTime="0.00" timeLoss="4.30" rerouteNo="0" devices="tripinfo_f_33.2 fcd_f_33.2" vType="t_0" speedFactor="1.10" vaporized=""/>
    <tripinfo id="f_43.1" depart="57666.00" departLane="E31_1" departPos="5.10" departSpeed="0.00" departDelay="3.93" arrival="57696.00" arrivalLane="-E40_1" arrivalPos="171.40" arrivalSpeed="8.92" duration="30.00" routeLength="242.87" waitingTime="0.00" waitingCount="0" stopTime="0.00" timeLoss="3.81" rerouteNo="0" devices="tripinfo_f_43.1 fcd_f_43.1" vType="t_0" speedFactor="1.12" vaporized=""/>
    <tripinfo id="f_42.2" depart="57658.00" departLane="-155605284#1_1" departPos="5.10" departSpeed="0.00" departDelay="0.40" arrival="57697.00" arrivalLane="E39_1" arrivalPos="97.21" arrivalSpeed="7.48" duration="39.00" routeLength="290.31" waitingTime="0.00" waitingCount="0" stopTime="0.00" timeLoss="4.72" rerouteNo="0" devices="tripinfo_f_42.2 fcd_f_42.2" vType="t_0" speedFactor="1.03" vaporized=""/>
    <tripinfo id="f_20.1" depart="57663.00" departLane="E26_1" departPos="5.10" departSpeed="0.00" departDelay="0.93" arrival="57699.00" arrivalLane="-E0_1" arrivalPos="77.15" arrivalSpeed="13.26" duration="36.00" routeLength="166.91" waitingTime="12.00" waitingCount="1" stopTime="0.00" timeLoss="18.95" rerouteNo="0" devices="tripinfo_f_20.1 fcd_f_20.1" vType="t_0" speedFactor="1.00" vaporized=""/>
    <tripinfo id="f_19.0" depart="57606.00" departLane="E12_1" departPos="5.10" departSpeed="0.00" departDelay="6.00" arrival="57701.00" arrivalLane="-E0_1" arrivalPos="77.15" arrivalSpeed="13.27" duration="95.00" routeLength="559.82" waitingTime="21.00" waitingCount="1" stopTime="0.00" timeLoss="33.55" rerouteNo="0" devices="tripinfo_f_19.0 fcd_f_19.0" vType="t_0" speedFactor="1.03" vaporized=""/>
    <tripinfo id="f_41.2" depart="57658.00" departLane="-1136034180#1_1" departPos="5.10" departSpeed="0.00" departDelay="0.40" arrival="57704.00" arrivalLane="816324771#2_1" arrivalPos="170.19" arrivalSpeed="6.57" duration="46.00" routeLength="306.90" waitingTime="0.00" waitingCount="0" stopTime="0.00" timeLoss="4.84" rerouteNo="0" devices="tripinfo_f_41.2 fcd_f_41.2" vType="t_0" speedFactor="0.90" vaporized=""/>
    <tripinfo id="f_29.1" depart="57663.00" departLane="-816324771#2_1" departPos="5.10" departSpeed="0.00" departDelay="0.93" arrival="57706.00" arrivalLane="816324771#2_1" arrivalPos="170.19" arrivalSpeed="9.63" duration="43.00" routeLength="339.95" waitingTime="0.00" waitingCount="0" stopTime="0.00" timeLoss="6.59" rerouteNo="0" devices="tripinfo_f_29.1 fcd_f_29.1" vType="t_0" speedFactor="1.17" vaporized=""/>
    <tripinfo id="f_44.1" depart="57663.00" departLane="E40_1" departPos="5.10" departSpeed="0.00" departDelay="0.93" arrival="57707.00" arrivalLane="E39_1" arrivalPos="97.21" arrivalSpeed="8.04" duration="44.00" routeLength="286.32" waitingTime="1.00" waitingCount="1" stopTime="0.00" timeLoss="9.31" rerouteNo="0" devices="tripinfo_f_44.1 fcd_f_44.1" vType="t_0" speedFactor="1.02" vaporized=""/>
    <tripinfo id="f_17.1" depart="57666.00" departLane="-776093907#2_1" departPos="5.10" departSpeed="0.00" departDelay="3.93" arrival="57707.00" arrivalLane="-68135997#1_1" arrivalPos="158.09" arrivalSpeed="7.64" duration="41.00" routeLength="301.92" waitingTime="0.00" waitingCount="0" stopTime="0.00" timeLoss="4.83" rerouteNo="0" devices="tripinfo_f_17.1 fcd_f_17.1" vType="t_0" speedFactor="1.02" vaporized=""/>
    <tripinfo id="f_3.0" depart="57612.00" departLane="E12_1" departPos="5.10" departSpeed="0.00" departDelay="12.00" arrival="57713.00" arrivalLane="E7_1" arrivalPos="151.73" arrivalSpeed="8.27" duration="101.00" routeLength="626.22" waitingTime="16.00" waitingCount="1" stopTime="0.00" timeLoss="28.83" rerouteNo="0" devices="tripinfo_f_3.0 fcd_f_3.0" vType="t_0" speedFactor="1.05" vaporized=""/>
    <tripinfo id="f_35.1" depart="57663.00" departLane="E8_1" departPos="5.10" departSpeed="0.00" departDelay="0.93" arrival="57714.00" arrivalLane="816324771#2_1" arrivalPos="170.19" arrivalSpeed="8.24" duration="51.00" routeLength="326.01" waitingTime="7.00" waitingCount="1" stopTime="0.00" timeLoss="16.20" rerouteNo="0" devices="tripinfo_f_35.1 fcd_f_35.1" vType="t_0" speedFactor="1.14" vaporized=""/>
    <tripinfo id="f_48.1" depart="57666.00" departLane="E40_1" departPos="5.10" departSpeed="0.00" departDelay="3.93" arrival="57715.00" arrivalLane="E8_1" arrivalPos="133.91" arrivalSpeed="6.44" duration="49.00" routeLength="310.97" waitingTime="0.00" waitingCount="0" stopTime="0.00" timeLoss="6.17" rerouteNo="0" devices="tripinfo_f_48.1 fcd_f_48.1" vType="t_0" speedFactor="0.88" vaporized=""/>
    <tripinfo id="f_36.0" depart="57600.00" departLane="E31_1" departPos="5.10" departSpeed="0.00" departDelay="0.00" arrival="57716.00" arrivalLane="155605284#1_1" arrivalPos="124.89" arrivalSpeed="9.38" duration="116.00" routeLength="404.33" waitingTime="59.00" waitingCount="2" stopTime="0.00" timeLoss="71.70" rerouteNo="0" devices="tripinfo_f_36.0 fcd_f_36.0" vType="t_0" speedFactor="1.16" vaporized=""/>
    <tripinfo id="f_8.0" depart="57603.00" departLane="E8_1" departPos="5.10" departSpeed="0.00" departDelay="3.00" arrival="57717.00" arrivalLane="E66_1" arrivalPos="167.00" arrivalSpeed="7.15" duration="114.00" routeLength="698.42" waitingTime="11.00" waitingCount="1" stopTime="0.00" timeLoss="23.20" rerouteNo="0" devices="tripinfo_f_8.0 fcd_f_8.0" vType="t_0" speedFactor="0.93" vaporized=""/>
    <tripinfo id="f_45.1" depart="57663.00" departLane="-E39_1" departPos="5.10" departSpeed="0.00" departDelay="0.93" arrival="57717.00" arrivalLane="-E40_1" arrivalPos="171.40" arrivalSpeed="7.45" duration="54.00" routeLength="286.10" waitingTime="10.00" waitingCount="1" stopTime="0.00" timeLoss="18.45" rerouteNo="0" devices="tripinfo_f_45.1 fcd_f_45.1" vType="t_0" speedFactor="0.99" vaporized=""/>
    <tripinfo id="f_46.1" depart="57666.00" departLane="-E39_1" departPos="5.10" departSpeed="0.00" departDelay="3.93" arrival="57717.00" arrivalLane="E8_2" arrivalPos="133.91" arrivalSpeed="7.08" duration="51.00" routeLength="248.18" waitingTime="10.00" waitingCount="1" stopTime="0.00" timeLoss="18.38" rerouteNo="0" devices="tripinfo_f_46.1 fcd_f_46.1" vType="t_0" speedFactor="0.94" vaporized=""/>
    <tripinfo id="f_24.0" depart="57600.00" departLane="-E7_1" departPos="5.10" departSpeed="0.00" departDelay="0.00" arrival="57719.00" arrivalLane="E66_2" arrivalPos="167.00" arrivalSpeed="6.83" duration="119.00" routeLength="609.39" waitingTime="26.00" waitingCount="1" stopTime="0.00" timeLoss="43.78" rerouteNo="0" devices="tripinfo_f_24.0 fcd_f_24.0" vType="t_0" speedFactor="0.89" vaporized=""/>
    <tripinfo id="f_30.0" depart="57615.00" departLane="E12_1" departPos="5.10" departSpeed="0.00" departDelay="15.00" arrival="57719.00" arrivalLane="E26_2" arrivalPos="85.18" arrivalSpeed="9.05" duration="104.00" routeLength="656.80" waitingTime="19.00" waitingCount="1" stopTime="0.00" timeLoss="33.02" rerouteNo="0" devices="tripinfo_f_30.0 fcd_f_30.0" vType="t_0" speedFactor="1.12" vaporized=""/>
    <tripinfo id="f_16.1" depart="57663.00" departLane="E17_1" departPos="5.10" departSpeed="0.00" departDelay="0.93" arrival="57719.00" arrivalLane="131333251#1_1" arrivalPos="148.76" arrivalSpeed="8.30" duration="56.00" routeLength="423.05" waitingTime="0.00" waitingCount="0" stopTime="0.00" timeLoss="6.22" rerouteNo="0" devices="tripinfo_f_16.1 fcd_f_16.1" vType="t_0" speedFactor="1.04" vaporized=""/>
    <tripinfo id="f_18.1" depart="57663.00" departLane="-131333251#1_1" departPos="5.10" departSpeed="0.00" departDelay="0.93" arrival="57719.00" arrivalLane="E7_1" arrivalPos="151.73" arrivalSpeed="7.89" duration="56.00" routeLength="399.58" waitingTime="0.00" waitingCount="0" stopTime="0.00" timeLoss="8.88" rerouteNo="0" devices="tripinfo_f_18.1 fcd_f_18.1" vType="t_0" speedFactor="1.04" vaporized=""/>
    <tripinfo id="f_27.0" depart="57603.00" departLane="E0_1" departPos="5.10" departSpeed="0.00" departDelay="3.00" arrival="57722.00" arrivalLane="E66_1" arrivalPos="167.00" arrivalSpeed="6.88" duration="119.00" routeLength="523.68" waitingTime="28.00" waitingCount="1" stopTime="0.00" timeLoss="44.45" rerouteNo="0" devices="tripinfo_f_27.0 fcd_f_27.0" vType="t_0" speedFactor="0.86" vaporized=""/>
    <tripinfo id="f_10.0" depart="57600.00" departLane="-776093907#2_1" departPos="5.10" departSpeed="0.00" departDelay="0.00" arrival="57722.00" arrivalLane="E30_2" arrivalPos="71.66" arrivalSpeed="9.27" duration="122.00" routeLength="625.47" waitingTime="35.00" waitingCount="3" stopTime="0.00" timeLoss="56.15" rerouteNo="0" devices="tripinfo_f_10.0 fcd_f_10.0" vType="t_0" speedFactor="1.15" vaporized=""/>
    <tripinfo id="f_36.1" depart="57663.00" departLane="E31_1" departPos="5.10" departSpeed="0.00" departDelay="0.93" arrival="57722.00" arrivalLane="155605284#1_1" arrivalPos="124.89" arrivalSpeed="8.00" duration="59.00" routeLength="404.33" waitingTime="0.00" waitingCount="0" stopTime="0.00" timeLoss="9.85" rerouteNo="0" devices="tripinfo_f_36.1 fcd_f_36.1" vType="t_0" speedFactor="1.02" vaporized=""/>
    <tripinfo id="f_28.0" depart="57609.00" departLane="E12_1" departPos="5.10" departSpeed="0.00" departDelay="9.00" arrival="57726.00" arrivalLane="816324771#2_1" arrivalPos="170.19" arrivalSpeed="8.57" duration="117.00" routeLength="757.80" waitingTime="16.00" waitingCount="1" stopTime="0.00" timeLoss="33.04" rerouteNo="0" devices="tripinfo_f_28.0 fcd_f_28.0" vType="t_0" speedFactor="1.09" vaporized=""/>
    <tripinfo id="f_21.1" depart="57666.00" departLane="E26_1" departPos="5.10" departSpeed="0.00" departDelay="3.93" arrival="57726.00" arrivalLane="E7_1" arrivalPos="151.73" arrivalSpeed="7.49" duration="60.00" routeLength="249.26" waitingTime="17.00" waitingCount="2" stopTime="0.00" timeLoss="26.12" rerouteNo="0" devices="tripinfo_f_21.1 fcd_f_21.1" vType="t_0" speedFactor="0.90" vaporized=""/>
    <tripinfo id="f_0.1" depart="57664.00" departLane="E12_1" departPos="5.10" departSpeed="0.00" departDelay="1.93" arrival="57731.00" arrivalLane="-E17_1" arrivalPos="146.59" arrivalSpeed="7.74" duration="67.00" routeLength="395.17" waitingTime="4.00" waitingCount="1" stopTime="0.00" timeLoss="17.03" rerouteNo="0" devices="tripinfo_f_0.1 fcd_f_0.1" vType="t_0" speedFactor="0.96" vaporized=""/>
    <tripinfo id="f_9.0" depart="57600.00" departLane="68135997#1_1" departPos="5.10" departSpeed="0.00" departDelay="0.00" arrival="57732.00" arrivalLane="155605284#1_1" arrivalPos="124.89" arrivalSpeed="9.35" duration="132.00" routeLength="783.31" waitingTime="34.00" waitingCount="2" stopTime="0.00" timeLoss="51.70" rerouteNo="0" devices="tripinfo_f_9.0 fcd_f_9.0" vType="t_0" speedFactor="1.18" vaporized=""/>
    <tripinfo id="f_19.1" depart="57671.00" departLane="E12_1" departPos="5.10" departSpeed="0.00" departDelay="8.93" arrival="57738.00" arrivalLane="-E0_1" arrivalPos="77.15" arrivalSpeed="12.98" duration="67.00" routeLength="559.82" waitingTime="0.00" waitingCount="0" stopTime="0.00" timeLoss="7.80" rerouteNo="0" devices="tripinfo_f_19.1 fcd_f_19.1" vType="t_0" speedFactor="1.09" vaporized=""/>
    <tripinfo id="f_31.1" depart="57663.00" departLane="E22_1" departPos="5.10" departSpeed="0.00" departDelay="0.93" arrival="57738.00" arrivalLane="-1136034180#1_1" arrivalPos="111.75" arrivalSpeed="5.27" duration="75.00" routeLength="331.22" waitingTime="18.00" waitingCount="3" stopTime="0.00" timeLoss="34.11" rerouteNo="0" devices="tripinfo_f_31.1 fcd_f_31.1" vType="t_0" speedFactor="1.00" vaporized=""/>
    <tripinfo id="f_1.1" depart="57667.00" departLane="E12_1" departPos="5.10" departSpeed="0.00" departDelay="4.93" arrival="57746.00" arrivalLane="131333251#1_1" arrivalPos="148.76" arrivalSpeed="8.76" duration="79.00" routeLength="523.25" waitingTime="4.00" waitingCount="1" stopTime="0.00" timeLoss="20.97" rerouteNo="0" devices="tripinfo_f_1.1 fcd_f_1.1" vType="t_0" speedFactor="1.09" vaporized=""/>
    <tripinfo id="f_27.1" depart="57663.00" departLane="E0_1" departPos="5.10" departSpeed="0.00" departDelay="0.93" arrival="57747.00" arrivalLane="E66_1" arrivalPos="167.00" arrivalSpeed="6.11" duration="84.00" routeLength="523.68" waitingTime="0.00" waitingCount="0" stopTime="0.00" timeLoss="8.86" rerouteNo="0" devices="tripinfo_f_27.1 fcd_f_27.1" vType="t_0" speedFactor="0.85" vaporized=""/>
    <tripinfo id="f_24.1" depart="57663.00" departLane="-E7_1" departPos="5.10" departSpeed="0.00" departDelay="0.93" arrival="57748.00" arrivalLane="E66_2" arrivalPos="167.00" arrivalSpeed="6.22" duration="85.00" routeLength="609.39" waitingTime="0.00" waitingCount="0" stopTime="0.00" timeLoss="9.38" rerouteNo="0" devices="tripinfo_f_24.1 fcd_f_24.1" vType="t_0" speedFactor="0.88" vaporized=""/>
    <tripinfo id="f_39.1" depart="57666.00" departLane="-816324771#2_1" departPos="5.10" departSpeed="0.00" departDelay="3.93" arrival="57748.00" arrivalLane="E30_1" arrivalPos="71.66" arrivalSpeed="7.52" duration="82.00" routeLength="248.46" waitingTime="43.00" waitingCount="1" stopTime="0.00" timeLoss="50.08" rerouteNo="0" devices="tripinfo_f_39.1 fcd_f_39.1" vType="t_0" speedFactor="0.97" vaporized=""/>
    <tripinfo id="f_42.3" depart="57687.00" departLane="-155605284#1_1" departPos="5.10" departSpeed="0.00" departDelay="0.60" arrival="57752.00" arrivalLane="E39_1" arrivalPos="97.21" arrivalSpeed="6.74" duration="65.00" routeLength="290.31" waitingTime="18.00" waitingCount="1" stopTime="0.00" timeLoss="27.45" rerouteNo="0" devices="tripinfo_f_42.3 fcd_f_42.3" vType="t_0" speedFactor="0.96" vaporized=""/>
    <tripinfo id="f_42.4" depart="57716.00" departLane="-155605284#1_1" departPos="5.10" departSpeed="0.00" departDelay="0.80" arrival="57759.00" arrivalLane="E39_1" arrivalPos="97.21" arrivalSpeed="7.35" duration="43.00" routeLength="290.31" waitingTime="0.00" waitingCount="0" stopTime="0.00" timeLoss="6.60" rerouteNo="0" devices="tripinfo_f_42.4 fcd_f_42.4" vType="t_0" speedFactor="0.98" vaporized=""/>
    <tripinfo id="f_23.1" depart="57669.00" departLane="-776093907#2_1" departPos="5.10" departSpeed="0.00" departDelay="6.93" arrival="57761.00" arrivalLane="E66_1" arrivalPos="167.00" arrivalSpeed="8.44" duration="92.00" routeLength="300.63" waitingTime="48.00" waitingCount="1" stopTime="0.00" timeLoss="55.95" rerouteNo="0" devices="tripinfo_f_23.1 fcd_f_23.1" vType="t_0" speedFactor="1.02" vaporized=""/>
    <tripinfo id="f_25.1" depart="57666.00" departLane="68135997#1_1" departPos="5.10" departSpeed="0.00" departDelay="3.93" arrival="57761.00" arrivalLane="776093907#2_1" arrivalPos="126.38" arrivalSpeed="7.89" duration="95.00" routeLength="301.98" waitingTime="48.00" waitingCount="1" stopTime="0.00" timeLoss="57.06" rerouteNo="0" devices="tripinfo_f_25.1 fcd_f_25.1" vType="t_0" speedFactor="0.97" vaporized=""/>
    <tripinfo id="f_41.3" depart="57687.00" departLane="-1136034180#1_1" departPos="5.10" departSpeed="0.00" departDelay="0.60" arrival="57761.00" arrivalLane="816324771#2_1" arrivalPos="170.19" arrivalSpeed="8.36" duration="74.00" routeLength="306.90" waitingTime="31.00" waitingCount="1" stopTime="0.00" timeLoss="38.20" rerouteNo="0" devices="tripinfo_f_41.3 fcd_f_41.3" vType="t_0" speedFactor="1.06" vaporized=""/>
    <tripinfo id="f_43.2" depart="57728.00" departLane="E31_1" departPos="5.10" departSpeed="0.00" departDelay="3.86" arrival="57764.00" arrivalLane="-E40_1" arrivalPos="171.40" arrivalSpeed="8.52" duration="36.00" routeLength="242.87" waitingTime="0.00" waitingCount="0" stopTime="0.00" timeLoss="9.89" rerouteNo="0" devices="tripinfo_f_43.2 fcd_f_43.2" vType="t_0" speedFactor="1.12" vaporized=""/>
    <tripinfo id="f_41.4" depart="57720.00" departLane="-1136034180#1_1" departPos="5.10" departSpeed="0.00" departDelay="4.80" arrival="57765.00" arrivalLane="816324771#2_1" arrivalPos="170.19" arrivalSpeed="7.75" duration="45.00" routeLength="306.90" waitingTime="0.00" waitingCount="0" stopTime="0.00" timeLoss="9.23" rerouteNo="0" devices="tripinfo_f_41.4 fcd_f_41.4" vType="t_0" speedFactor="1.03" vaporized=""/>